+ 20 2 7 cbr 210 ------- 0 2.0 7.0 0 2085
- 20 2 7 cbr 210 ------- 0 2.0 7.0 0 2085
+ 20.00336 2 7 cbr 210 ------- 0 2.0 7.0 1 2086
- 20.00336 2 7 cbr 210 ------- 0 2.0 7.0 1 2086
+ 20.00672 2 7 cbr 210 ------- 0 2.0 7.0 2 2087
- 20.00672 2 7 cbr 210 ------- 0 2.0 7.0 2 2087
+ 20.01008 2 7 cbr 210 ------- 0 2.0 7.0 3 2088
- 20.01008 2 7 cbr 210 ------- 0 2.0 7.0 3 2088
r 20.01168 2 7 cbr 210 ------- 0 2.0 7.0 0 2085
+ 20.01344 2 7 cbr 210 ------- 0 2.0 7.0 4 2089
- 20.01344 2 7 cbr 210 ------- 0 2.0 7.0 4 2089
r 20.01504 2 7 cbr 210 ------- 0 2.0 7.0 1 2086
+ 20.0168 2 7 cbr 210 ------- 0 2.0 7.0 5 2090
- 20.0168 2 7 cbr 210 ------- 0 2.0 7.0 5 2090
r 20.0184 2 7 cbr 210 ------- 0 2.0 7.0 2 2087
+ 20.02016 2 7 cbr 210 ------- 0 2.0 7.0 6 2091
- 20.02016 2 7 cbr 210 ------- 0 2.0 7.0 6 2091
r 20.02176 2 7 cbr 210 ------- 0 2.0 7.0 3 2088
+ 20.02352 2 7 cbr 210 ------- 0 2.0 7.0 7 2092
- 20.02352 2 7 cbr 210 ------- 0 2.0 7.0 7 2092
r 20.02512 2 7 cbr 210 ------- 0 2.0 7.0 4 2089
+ 20.02688 2 7 cbr 210 ------- 0 2.0 7.0 8 2093
- 20.02688 2 7 cbr 210 ------- 0 2.0 7.0 8 2093
r 20.02848 2 7 cbr 210 ------- 0 2.0 7.0 5 2090
+ 20.03024 2 7 cbr 210 ------- 0 2.0 7.0 9 2094
- 20.03024 2 7 cbr 210 ------- 0 2.0 7.0 9 2094
r 20.03184 2 7 cbr 210 ------- 0 2.0 7.0 6 2091
+ 20.0336 2 7 cbr 210 ------- 0 2.0 7.0 10 2095
- 20.0336 2 7 cbr 210 ------- 0 2.0 7.0 10 2095
r 20.0352 2 7 cbr 210 ------- 0 2.0 7.0 7 2092
+ 20.03696 2 7 cbr 210 ------- 0 2.0 7.0 11 2096
- 20.03696 2 7 cbr 210 ------- 0 2.0 7.0 11 2096
r 20.03856 2 7 cbr 210 ------- 0 2.0 7.0 8 2093
+ 20.04032 2 7 cbr 210 ------- 0 2.0 7.0 12 2097
- 20.04032 2 7 cbr 210 ------- 0 2.0 7.0 12 2097
r 20.04192 2 7 cbr 210 ------- 0 2.0 7.0 9 2094
+ 20.04368 2 7 cbr 210 ------- 0 2.0 7.0 13 2098
- 20.04368 2 7 cbr 210 ------- 0 2.0 7.0 13 2098
r 20.04528 2 7 cbr 210 ------- 0 2.0 7.0 10 2095
+ 20.04704 2 7 cbr 210 ------- 0 2.0 7.0 14 2099
- 20.04704 2 7 cbr 210 ------- 0 2.0 7.0 14 2099
r 20.04864 2 7 cbr 210 ------- 0 2.0 7.0 11 2096
+ 20.0504 2 7 cbr 210 ------- 0 2.0 7.0 15 2100
- 20.0504 2 7 cbr 210 ------- 0 2.0 7.0 15 2100
r 20.052 2 7 cbr 210 ------- 0 2.0 7.0 12 2097
+ 20.05376 2 7 cbr 210 ------- 0 2.0 7.0 16 2101
- 20.05376 2 7 cbr 210 ------- 0 2.0 7.0 16 2101
r 20.05536 2 7 cbr 210 ------- 0 2.0 7.0 13 2098
+ 20.05712 2 7 cbr 210 ------- 0 2.0 7.0 17 2102
- 20.05712 2 7 cbr 210 ------- 0 2.0 7.0 17 2102
r 20.05872 2 7 cbr 210 ------- 0 2.0 7.0 14 2099
+ 20.06048 2 7 cbr 210 ------- 0 2.0 7.0 18 2103
- 20.06048 2 7 cbr 210 ------- 0 2.0 7.0 18 2103
r 20.06208 2 7 cbr 210 ------- 0 2.0 7.0 15 2100
+ 20.06384 2 7 cbr 210 ------- 0 2.0 7.0 19 2104
- 20.06384 2 7 cbr 210 ------- 0 2.0 7.0 19 2104
r 20.06544 2 7 cbr 210 ------- 0 2.0 7.0 16 2101
+ 20.0672 2 7 cbr 210 ------- 0 2.0 7.0 20 2105
- 20.0672 2 7 cbr 210 ------- 0 2.0 7.0 20 2105
r 20.0688 2 7 cbr 210 ------- 0 2.0 7.0 17 2102
+ 20.07056 2 7 cbr 210 ------- 0 2.0 7.0 21 2106
- 20.07056 2 7 cbr 210 ------- 0 2.0 7.0 21 2106
r 20.07216 2 7 cbr 210 ------- 0 2.0 7.0 18 2103
+ 20.07392 2 7 cbr 210 ------- 0 2.0 7.0 22 2107
- 20.07392 2 7 cbr 210 ------- 0 2.0 7.0 22 2107
r 20.07552 2 7 cbr 210 ------- 0 2.0 7.0 19 2104
+ 20.07728 2 7 cbr 210 ------- 0 2.0 7.0 23 2108
- 20.07728 2 7 cbr 210 ------- 0 2.0 7.0 23 2108
r 20.07888 2 7 cbr 210 ------- 0 2.0 7.0 20 2105
+ 20.08064 2 7 cbr 210 ------- 0 2.0 7.0 24 2109
- 20.08064 2 7 cbr 210 ------- 0 2.0 7.0 24 2109
r 20.08224 2 7 cbr 210 ------- 0 2.0 7.0 21 2106
+ 20.084 2 7 cbr 210 ------- 0 2.0 7.0 25 2110
- 20.084 2 7 cbr 210 ------- 0 2.0 7.0 25 2110
r 20.0856 2 7 cbr 210 ------- 0 2.0 7.0 22 2107
+ 20.08736 2 7 cbr 210 ------- 0 2.0 7.0 26 2111
- 20.08736 2 7 cbr 210 ------- 0 2.0 7.0 26 2111
r 20.08896 2 7 cbr 210 ------- 0 2.0 7.0 23 2108
+ 20.09072 2 7 cbr 210 ------- 0 2.0 7.0 27 2112
- 20.09072 2 7 cbr 210 ------- 0 2.0 7.0 27 2112
r 20.09232 2 7 cbr 210 ------- 0 2.0 7.0 24 2109
+ 20.09408 2 7 cbr 210 ------- 0 2.0 7.0 28 2113
- 20.09408 2 7 cbr 210 ------- 0 2.0 7.0 28 2113
r 20.09568 2 7 cbr 210 ------- 0 2.0 7.0 25 2110
+ 20.09744 2 7 cbr 210 ------- 0 2.0 7.0 29 2114
- 20.09744 2 7 cbr 210 ------- 0 2.0 7.0 29 2114
r 20.09904 2 7 cbr 210 ------- 0 2.0 7.0 26 2111
+ 20.1008 2 7 cbr 210 ------- 0 2.0 7.0 30 2115
- 20.1008 2 7 cbr 210 ------- 0 2.0 7.0 30 2115
r 20.1024 2 7 cbr 210 ------- 0 2.0 7.0 27 2112
+ 20.10416 2 7 cbr 210 ------- 0 2.0 7.0 31 2116
- 20.10416 2 7 cbr 210 ------- 0 2.0 7.0 31 2116
r 20.10576 2 7 cbr 210 ------- 0 2.0 7.0 28 2113
+ 20.10752 2 7 cbr 210 ------- 0 2.0 7.0 32 2117
- 20.10752 2 7 cbr 210 ------- 0 2.0 7.0 32 2117
r 20.10912 2 7 cbr 210 ------- 0 2.0 7.0 29 2114
+ 20.11088 2 7 cbr 210 ------- 0 2.0 7.0 33 2118
- 20.11088 2 7 cbr 210 ------- 0 2.0 7.0 33 2118
r 20.11248 2 7 cbr 210 ------- 0 2.0 7.0 30 2115
+ 20.11424 2 7 cbr 210 ------- 0 2.0 7.0 34 2119
- 20.11424 2 7 cbr 210 ------- 0 2.0 7.0 34 2119
r 20.11584 2 7 cbr 210 ------- 0 2.0 7.0 31 2116
+ 20.1176 2 7 cbr 210 ------- 0 2.0 7.0 35 2120
- 20.1176 2 7 cbr 210 ------- 0 2.0 7.0 35 2120
r 20.1192 2 7 cbr 210 ------- 0 2.0 7.0 32 2117
+ 20.12096 2 7 cbr 210 ------- 0 2.0 7.0 36 2121
- 20.12096 2 7 cbr 210 ------- 0 2.0 7.0 36 2121
r 20.12256 2 7 cbr 210 ------- 0 2.0 7.0 33 2118
+ 20.12432 2 7 cbr 210 ------- 0 2.0 7.0 37 2122
- 20.12432 2 7 cbr 210 ------- 0 2.0 7.0 37 2122
r 20.12592 2 7 cbr 210 ------- 0 2.0 7.0 34 2119
+ 20.12768 2 7 cbr 210 ------- 0 2.0 7.0 38 2123
- 20.12768 2 7 cbr 210 ------- 0 2.0 7.0 38 2123
r 20.12928 2 7 cbr 210 ------- 0 2.0 7.0 35 2120
+ 20.13104 2 7 cbr 210 ------- 0 2.0 7.0 39 2124
- 20.13104 2 7 cbr 210 ------- 0 2.0 7.0 39 2124
r 20.13264 2 7 cbr 210 ------- 0 2.0 7.0 36 2121
+ 20.1344 2 7 cbr 210 ------- 0 2.0 7.0 40 2125
- 20.1344 2 7 cbr 210 ------- 0 2.0 7.0 40 2125
r 20.136 2 7 cbr 210 ------- 0 2.0 7.0 37 2122
+ 20.13776 2 7 cbr 210 ------- 0 2.0 7.0 41 2126
- 20.13776 2 7 cbr 210 ------- 0 2.0 7.0 41 2126
r 20.13936 2 7 cbr 210 ------- 0 2.0 7.0 38 2123
+ 20.14112 2 7 cbr 210 ------- 0 2.0 7.0 42 2127
- 20.14112 2 7 cbr 210 ------- 0 2.0 7.0 42 2127
r 20.14272 2 7 cbr 210 ------- 0 2.0 7.0 39 2124
+ 20.14448 2 7 cbr 210 ------- 0 2.0 7.0 43 2128
- 20.14448 2 7 cbr 210 ------- 0 2.0 7.0 43 2128
r 20.14608 2 7 cbr 210 ------- 0 2.0 7.0 40 2125
+ 20.14784 2 7 cbr 210 ------- 0 2.0 7.0 44 2129
- 20.14784 2 7 cbr 210 ------- 0 2.0 7.0 44 2129
r 20.14944 2 7 cbr 210 ------- 0 2.0 7.0 41 2126
+ 20.1512 2 7 cbr 210 ------- 0 2.0 7.0 45 2130
- 20.1512 2 7 cbr 210 ------- 0 2.0 7.0 45 2130
r 20.1528 2 7 cbr 210 ------- 0 2.0 7.0 42 2127
+ 20.15456 2 7 cbr 210 ------- 0 2.0 7.0 46 2131
- 20.15456 2 7 cbr 210 ------- 0 2.0 7.0 46 2131
r 20.15616 2 7 cbr 210 ------- 0 2.0 7.0 43 2128
+ 20.15792 2 7 cbr 210 ------- 0 2.0 7.0 47 2132
- 20.15792 2 7 cbr 210 ------- 0 2.0 7.0 47 2132
r 20.15952 2 7 cbr 210 ------- 0 2.0 7.0 44 2129
+ 20.16128 2 7 cbr 210 ------- 0 2.0 7.0 48 2133
- 20.16128 2 7 cbr 210 ------- 0 2.0 7.0 48 2133
r 20.16288 2 7 cbr 210 ------- 0 2.0 7.0 45 2130
+ 20.16464 2 7 cbr 210 ------- 0 2.0 7.0 49 2134
- 20.16464 2 7 cbr 210 ------- 0 2.0 7.0 49 2134
r 20.16624 2 7 cbr 210 ------- 0 2.0 7.0 46 2131
+ 20.168 2 7 cbr 210 ------- 0 2.0 7.0 50 2135
- 20.168 2 7 cbr 210 ------- 0 2.0 7.0 50 2135
r 20.1696 2 7 cbr 210 ------- 0 2.0 7.0 47 2132
+ 20.17136 2 7 cbr 210 ------- 0 2.0 7.0 51 2136
- 20.17136 2 7 cbr 210 ------- 0 2.0 7.0 51 2136
r 20.17296 2 7 cbr 210 ------- 0 2.0 7.0 48 2133
+ 20.17472 2 7 cbr 210 ------- 0 2.0 7.0 52 2137
- 20.17472 2 7 cbr 210 ------- 0 2.0 7.0 52 2137
r 20.17632 2 7 cbr 210 ------- 0 2.0 7.0 49 2134
+ 20.17808 2 7 cbr 210 ------- 0 2.0 7.0 53 2138
- 20.17808 2 7 cbr 210 ------- 0 2.0 7.0 53 2138
r 20.17968 2 7 cbr 210 ------- 0 2.0 7.0 50 2135
+ 20.18144 2 7 cbr 210 ------- 0 2.0 7.0 54 2139
- 20.18144 2 7 cbr 210 ------- 0 2.0 7.0 54 2139
r 20.18304 2 7 cbr 210 ------- 0 2.0 7.0 51 2136
+ 20.1848 2 7 cbr 210 ------- 0 2.0 7.0 55 2140
- 20.1848 2 7 cbr 210 ------- 0 2.0 7.0 55 2140
r 20.1864 2 7 cbr 210 ------- 0 2.0 7.0 52 2137
+ 20.18816 2 7 cbr 210 ------- 0 2.0 7.0 56 2141
- 20.18816 2 7 cbr 210 ------- 0 2.0 7.0 56 2141
r 20.18976 2 7 cbr 210 ------- 0 2.0 7.0 53 2138
+ 20.19152 2 7 cbr 210 ------- 0 2.0 7.0 57 2142
- 20.19152 2 7 cbr 210 ------- 0 2.0 7.0 57 2142
r 20.19312 2 7 cbr 210 ------- 0 2.0 7.0 54 2139
+ 20.19488 2 7 cbr 210 ------- 0 2.0 7.0 58 2143
- 20.19488 2 7 cbr 210 ------- 0 2.0 7.0 58 2143
r 20.19648 2 7 cbr 210 ------- 0 2.0 7.0 55 2140
+ 20.19824 2 7 cbr 210 ------- 0 2.0 7.0 59 2144
- 20.19824 2 7 cbr 210 ------- 0 2.0 7.0 59 2144
r 20.19984 2 7 cbr 210 ------- 0 2.0 7.0 56 2141
+ 20.2016 2 7 cbr 210 ------- 0 2.0 7.0 60 2145
- 20.2016 2 7 cbr 210 ------- 0 2.0 7.0 60 2145
r 20.2032 2 7 cbr 210 ------- 0 2.0 7.0 57 2142
+ 20.20496 2 7 cbr 210 ------- 0 2.0 7.0 61 2146
- 20.20496 2 7 cbr 210 ------- 0 2.0 7.0 61 2146
r 20.20656 2 7 cbr 210 ------- 0 2.0 7.0 58 2143
+ 20.20832 2 7 cbr 210 ------- 0 2.0 7.0 62 2147
- 20.20832 2 7 cbr 210 ------- 0 2.0 7.0 62 2147
r 20.20992 2 7 cbr 210 ------- 0 2.0 7.0 59 2144
+ 20.21168 2 7 cbr 210 ------- 0 2.0 7.0 63 2148
- 20.21168 2 7 cbr 210 ------- 0 2.0 7.0 63 2148
r 20.21328 2 7 cbr 210 ------- 0 2.0 7.0 60 2145
+ 20.21504 2 7 cbr 210 ------- 0 2.0 7.0 64 2149
- 20.21504 2 7 cbr 210 ------- 0 2.0 7.0 64 2149
r 20.21664 2 7 cbr 210 ------- 0 2.0 7.0 61 2146
+ 20.2184 2 7 cbr 210 ------- 0 2.0 7.0 65 2150
- 20.2184 2 7 cbr 210 ------- 0 2.0 7.0 65 2150
r 20.22 2 7 cbr 210 ------- 0 2.0 7.0 62 2147
+ 20.22176 2 7 cbr 210 ------- 0 2.0 7.0 66 2151
- 20.22176 2 7 cbr 210 ------- 0 2.0 7.0 66 2151
r 20.22336 2 7 cbr 210 ------- 0 2.0 7.0 63 2148
+ 20.22512 2 7 cbr 210 ------- 0 2.0 7.0 67 2152
- 20.22512 2 7 cbr 210 ------- 0 2.0 7.0 67 2152
r 20.22672 2 7 cbr 210 ------- 0 2.0 7.0 64 2149
+ 20.22848 2 7 cbr 210 ------- 0 2.0 7.0 68 2153
- 20.22848 2 7 cbr 210 ------- 0 2.0 7.0 68 2153
r 20.23008 2 7 cbr 210 ------- 0 2.0 7.0 65 2150
+ 20.23184 2 7 cbr 210 ------- 0 2.0 7.0 69 2154
- 20.23184 2 7 cbr 210 ------- 0 2.0 7.0 69 2154
r 20.23344 2 7 cbr 210 ------- 0 2.0 7.0 66 2151
+ 20.2352 2 7 cbr 210 ------- 0 2.0 7.0 70 2155
- 20.2352 2 7 cbr 210 ------- 0 2.0 7.0 70 2155
r 20.2368 2 7 cbr 210 ------- 0 2.0 7.0 67 2152
+ 20.23856 2 7 cbr 210 ------- 0 2.0 7.0 71 2156
- 20.23856 2 7 cbr 210 ------- 0 2.0 7.0 71 2156
r 20.24016 2 7 cbr 210 ------- 0 2.0 7.0 68 2153
+ 20.24192 2 7 cbr 210 ------- 0 2.0 7.0 72 2157
- 20.24192 2 7 cbr 210 ------- 0 2.0 7.0 72 2157
r 20.24352 2 7 cbr 210 ------- 0 2.0 7.0 69 2154
+ 20.24528 2 7 cbr 210 ------- 0 2.0 7.0 73 2158
- 20.24528 2 7 cbr 210 ------- 0 2.0 7.0 73 2158
r 20.24688 2 7 cbr 210 ------- 0 2.0 7.0 70 2155
+ 20.24864 2 7 cbr 210 ------- 0 2.0 7.0 74 2159
- 20.24864 2 7 cbr 210 ------- 0 2.0 7.0 74 2159
r 20.25024 2 7 cbr 210 ------- 0 2.0 7.0 71 2156
+ 20.252 2 7 cbr 210 ------- 0 2.0 7.0 75 2160
- 20.252 2 7 cbr 210 ------- 0 2.0 7.0 75 2160
r 20.2536 2 7 cbr 210 ------- 0 2.0 7.0 72 2157
+ 20.25536 2 7 cbr 210 ------- 0 2.0 7.0 76 2161
- 20.25536 2 7 cbr 210 ------- 0 2.0 7.0 76 2161
r 20.25696 2 7 cbr 210 ------- 0 2.0 7.0 73 2158
+ 20.25872 2 7 cbr 210 ------- 0 2.0 7.0 77 2162
- 20.25872 2 7 cbr 210 ------- 0 2.0 7.0 77 2162
r 20.26032 2 7 cbr 210 ------- 0 2.0 7.0 74 2159
+ 20.26208 2 7 cbr 210 ------- 0 2.0 7.0 78 2163
- 20.26208 2 7 cbr 210 ------- 0 2.0 7.0 78 2163
r 20.26368 2 7 cbr 210 ------- 0 2.0 7.0 75 2160
+ 20.26544 2 7 cbr 210 ------- 0 2.0 7.0 79 2164
- 20.26544 2 7 cbr 210 ------- 0 2.0 7.0 79 2164
r 20.26704 2 7 cbr 210 ------- 0 2.0 7.0 76 2161
+ 20.2688 2 7 cbr 210 ------- 0 2.0 7.0 80 2165
- 20.2688 2 7 cbr 210 ------- 0 2.0 7.0 80 2165
r 20.2704 2 7 cbr 210 ------- 0 2.0 7.0 77 2162
+ 20.27216 2 7 cbr 210 ------- 0 2.0 7.0 81 2166
- 20.27216 2 7 cbr 210 ------- 0 2.0 7.0 81 2166
r 20.27376 2 7 cbr 210 ------- 0 2.0 7.0 78 2163
+ 20.27552 2 7 cbr 210 ------- 0 2.0 7.0 82 2167
- 20.27552 2 7 cbr 210 ------- 0 2.0 7.0 82 2167
r 20.27712 2 7 cbr 210 ------- 0 2.0 7.0 79 2164
+ 20.27888 2 7 cbr 210 ------- 0 2.0 7.0 83 2168
- 20.27888 2 7 cbr 210 ------- 0 2.0 7.0 83 2168
r 20.28048 2 7 cbr 210 ------- 0 2.0 7.0 80 2165
+ 20.28224 2 7 cbr 210 ------- 0 2.0 7.0 84 2169
- 20.28224 2 7 cbr 210 ------- 0 2.0 7.0 84 2169
r 20.28384 2 7 cbr 210 ------- 0 2.0 7.0 81 2166
+ 20.2856 2 7 cbr 210 ------- 0 2.0 7.0 85 2170
- 20.2856 2 7 cbr 210 ------- 0 2.0 7.0 85 2170
r 20.2872 2 7 cbr 210 ------- 0 2.0 7.0 82 2167
+ 20.28896 2 7 cbr 210 ------- 0 2.0 7.0 86 2171
- 20.28896 2 7 cbr 210 ------- 0 2.0 7.0 86 2171
r 20.29056 2 7 cbr 210 ------- 0 2.0 7.0 83 2168
+ 20.29232 2 7 cbr 210 ------- 0 2.0 7.0 87 2172
- 20.29232 2 7 cbr 210 ------- 0 2.0 7.0 87 2172
r 20.29392 2 7 cbr 210 ------- 0 2.0 7.0 84 2169
+ 20.29568 2 7 cbr 210 ------- 0 2.0 7.0 88 2173
- 20.29568 2 7 cbr 210 ------- 0 2.0 7.0 88 2173
r 20.29728 2 7 cbr 210 ------- 0 2.0 7.0 85 2170
+ 20.29904 2 7 cbr 210 ------- 0 2.0 7.0 89 2174
- 20.29904 2 7 cbr 210 ------- 0 2.0 7.0 89 2174
r 20.30064 2 7 cbr 210 ------- 0 2.0 7.0 86 2171
+ 20.3024 2 7 cbr 210 ------- 0 2.0 7.0 90 2175
- 20.3024 2 7 cbr 210 ------- 0 2.0 7.0 90 2175
r 20.304 2 7 cbr 210 ------- 0 2.0 7.0 87 2172
+ 20.30576 2 7 cbr 210 ------- 0 2.0 7.0 91 2176
- 20.30576 2 7 cbr 210 ------- 0 2.0 7.0 91 2176
r 20.30736 2 7 cbr 210 ------- 0 2.0 7.0 88 2173
+ 20.30912 2 7 cbr 210 ------- 0 2.0 7.0 92 2177
- 20.30912 2 7 cbr 210 ------- 0 2.0 7.0 92 2177
r 20.31072 2 7 cbr 210 ------- 0 2.0 7.0 89 2174
+ 20.31248 2 7 cbr 210 ------- 0 2.0 7.0 93 2178
- 20.31248 2 7 cbr 210 ------- 0 2.0 7.0 93 2178
r 20.31408 2 7 cbr 210 ------- 0 2.0 7.0 90 2175
+ 20.31584 2 7 cbr 210 ------- 0 2.0 7.0 94 2179
- 20.31584 2 7 cbr 210 ------- 0 2.0 7.0 94 2179
r 20.31744 2 7 cbr 210 ------- 0 2.0 7.0 91 2176
+ 20.3192 2 7 cbr 210 ------- 0 2.0 7.0 95 2180
- 20.3192 2 7 cbr 210 ------- 0 2.0 7.0 95 2180
r 20.3208 2 7 cbr 210 ------- 0 2.0 7.0 92 2177
+ 20.32256 2 7 cbr 210 ------- 0 2.0 7.0 96 2181
- 20.32256 2 7 cbr 210 ------- 0 2.0 7.0 96 2181
r 20.32416 2 7 cbr 210 ------- 0 2.0 7.0 93 2178
+ 20.32592 2 7 cbr 210 ------- 0 2.0 7.0 97 2182
- 20.32592 2 7 cbr 210 ------- 0 2.0 7.0 97 2182
r 20.32752 2 7 cbr 210 ------- 0 2.0 7.0 94 2179
+ 20.32928 2 7 cbr 210 ------- 0 2.0 7.0 98 2183
- 20.32928 2 7 cbr 210 ------- 0 2.0 7.0 98 2183
r 20.33088 2 7 cbr 210 ------- 0 2.0 7.0 95 2180
+ 20.33264 2 7 cbr 210 ------- 0 2.0 7.0 99 2184
- 20.33264 2 7 cbr 210 ------- 0 2.0 7.0 99 2184
r 20.33424 2 7 cbr 210 ------- 0 2.0 7.0 96 2181
+ 20.336 2 7 cbr 210 ------- 0 2.0 7.0 100 2185
- 20.336 2 7 cbr 210 ------- 0 2.0 7.0 100 2185
r 20.3376 2 7 cbr 210 ------- 0 2.0 7.0 97 2182
+ 20.33936 2 7 cbr 210 ------- 0 2.0 7.0 101 2186
- 20.33936 2 7 cbr 210 ------- 0 2.0 7.0 101 2186
r 20.34096 2 7 cbr 210 ------- 0 2.0 7.0 98 2183
+ 20.34272 2 7 cbr 210 ------- 0 2.0 7.0 102 2187
- 20.34272 2 7 cbr 210 ------- 0 2.0 7.0 102 2187
r 20.34432 2 7 cbr 210 ------- 0 2.0 7.0 99 2184
+ 20.34608 2 7 cbr 210 ------- 0 2.0 7.0 103 2188
- 20.34608 2 7 cbr 210 ------- 0 2.0 7.0 103 2188
r 20.34768 2 7 cbr 210 ------- 0 2.0 7.0 100 2185
+ 20.34944 2 7 cbr 210 ------- 0 2.0 7.0 104 2189
- 20.34944 2 7 cbr 210 ------- 0 2.0 7.0 104 2189
r 20.35104 2 7 cbr 210 ------- 0 2.0 7.0 101 2186
+ 20.3528 2 7 cbr 210 ------- 0 2.0 7.0 105 2190
- 20.3528 2 7 cbr 210 ------- 0 2.0 7.0 105 2190
r 20.3544 2 7 cbr 210 ------- 0 2.0 7.0 102 2187
+ 20.35616 2 7 cbr 210 ------- 0 2.0 7.0 106 2191
- 20.35616 2 7 cbr 210 ------- 0 2.0 7.0 106 2191
r 20.35776 2 7 cbr 210 ------- 0 2.0 7.0 103 2188
+ 20.35952 2 7 cbr 210 ------- 0 2.0 7.0 107 2192
- 20.35952 2 7 cbr 210 ------- 0 2.0 7.0 107 2192
r 20.36112 2 7 cbr 210 ------- 0 2.0 7.0 104 2189
+ 20.36288 2 7 cbr 210 ------- 0 2.0 7.0 108 2193
- 20.36288 2 7 cbr 210 ------- 0 2.0 7.0 108 2193
r 20.36448 2 7 cbr 210 ------- 0 2.0 7.0 105 2190
+ 20.36624 2 7 cbr 210 ------- 0 2.0 7.0 109 2194
- 20.36624 2 7 cbr 210 ------- 0 2.0 7.0 109 2194
r 20.36784 2 7 cbr 210 ------- 0 2.0 7.0 106 2191
+ 20.3696 2 7 cbr 210 ------- 0 2.0 7.0 110 2195
- 20.3696 2 7 cbr 210 ------- 0 2.0 7.0 110 2195
r 20.3712 2 7 cbr 210 ------- 0 2.0 7.0 107 2192
+ 20.37296 2 7 cbr 210 ------- 0 2.0 7.0 111 2196
- 20.37296 2 7 cbr 210 ------- 0 2.0 7.0 111 2196
r 20.37456 2 7 cbr 210 ------- 0 2.0 7.0 108 2193
+ 20.37632 2 7 cbr 210 ------- 0 2.0 7.0 112 2197
- 20.37632 2 7 cbr 210 ------- 0 2.0 7.0 112 2197
r 20.37792 2 7 cbr 210 ------- 0 2.0 7.0 109 2194
+ 20.37968 2 7 cbr 210 ------- 0 2.0 7.0 113 2198
- 20.37968 2 7 cbr 210 ------- 0 2.0 7.0 113 2198
r 20.38128 2 7 cbr 210 ------- 0 2.0 7.0 110 2195
+ 20.38304 2 7 cbr 210 ------- 0 2.0 7.0 114 2199
- 20.38304 2 7 cbr 210 ------- 0 2.0 7.0 114 2199
r 20.38464 2 7 cbr 210 ------- 0 2.0 7.0 111 2196
+ 20.3864 2 7 cbr 210 ------- 0 2.0 7.0 115 2200
- 20.3864 2 7 cbr 210 ------- 0 2.0 7.0 115 2200
r 20.388 2 7 cbr 210 ------- 0 2.0 7.0 112 2197
+ 20.38976 2 7 cbr 210 ------- 0 2.0 7.0 116 2201
- 20.38976 2 7 cbr 210 ------- 0 2.0 7.0 116 2201
r 20.39136 2 7 cbr 210 ------- 0 2.0 7.0 113 2198
+ 20.39312 2 7 cbr 210 ------- 0 2.0 7.0 117 2202
- 20.39312 2 7 cbr 210 ------- 0 2.0 7.0 117 2202
r 20.39472 2 7 cbr 210 ------- 0 2.0 7.0 114 2199
+ 20.39648 2 7 cbr 210 ------- 0 2.0 7.0 118 2203
- 20.39648 2 7 cbr 210 ------- 0 2.0 7.0 118 2203
r 20.39808 2 7 cbr 210 ------- 0 2.0 7.0 115 2200
+ 20.39984 2 7 cbr 210 ------- 0 2.0 7.0 119 2204
- 20.39984 2 7 cbr 210 ------- 0 2.0 7.0 119 2204
r 20.40144 2 7 cbr 210 ------- 0 2.0 7.0 116 2201
+ 20.4032 2 7 cbr 210 ------- 0 2.0 7.0 120 2205
- 20.4032 2 7 cbr 210 ------- 0 2.0 7.0 120 2205
r 20.4048 2 7 cbr 210 ------- 0 2.0 7.0 117 2202
+ 20.40656 2 7 cbr 210 ------- 0 2.0 7.0 121 2206
- 20.40656 2 7 cbr 210 ------- 0 2.0 7.0 121 2206
r 20.40816 2 7 cbr 210 ------- 0 2.0 7.0 118 2203
+ 20.40992 2 7 cbr 210 ------- 0 2.0 7.0 122 2207
- 20.40992 2 7 cbr 210 ------- 0 2.0 7.0 122 2207
r 20.41152 2 7 cbr 210 ------- 0 2.0 7.0 119 2204
+ 20.41328 2 7 cbr 210 ------- 0 2.0 7.0 123 2208
- 20.41328 2 7 cbr 210 ------- 0 2.0 7.0 123 2208
r 20.41488 2 7 cbr 210 ------- 0 2.0 7.0 120 2205
+ 20.41664 2 7 cbr 210 ------- 0 2.0 7.0 124 2209
- 20.41664 2 7 cbr 210 ------- 0 2.0 7.0 124 2209
r 20.41824 2 7 cbr 210 ------- 0 2.0 7.0 121 2206
+ 20.42 2 7 cbr 210 ------- 0 2.0 7.0 125 2210
- 20.42 2 7 cbr 210 ------- 0 2.0 7.0 125 2210
r 20.4216 2 7 cbr 210 ------- 0 2.0 7.0 122 2207
+ 20.42336 2 7 cbr 210 ------- 0 2.0 7.0 126 2211
- 20.42336 2 7 cbr 210 ------- 0 2.0 7.0 126 2211
r 20.42496 2 7 cbr 210 ------- 0 2.0 7.0 123 2208
+ 20.42672 2 7 cbr 210 ------- 0 2.0 7.0 127 2212
- 20.42672 2 7 cbr 210 ------- 0 2.0 7.0 127 2212
r 20.42832 2 7 cbr 210 ------- 0 2.0 7.0 124 2209
+ 20.43008 2 7 cbr 210 ------- 0 2.0 7.0 128 2213
- 20.43008 2 7 cbr 210 ------- 0 2.0 7.0 128 2213
r 20.43168 2 7 cbr 210 ------- 0 2.0 7.0 125 2210
+ 20.43344 2 7 cbr 210 ------- 0 2.0 7.0 129 2214
- 20.43344 2 7 cbr 210 ------- 0 2.0 7.0 129 2214
r 20.43504 2 7 cbr 210 ------- 0 2.0 7.0 126 2211
+ 20.4368 2 7 cbr 210 ------- 0 2.0 7.0 130 2215
- 20.4368 2 7 cbr 210 ------- 0 2.0 7.0 130 2215
r 20.4384 2 7 cbr 210 ------- 0 2.0 7.0 127 2212
+ 20.44016 2 7 cbr 210 ------- 0 2.0 7.0 131 2216
- 20.44016 2 7 cbr 210 ------- 0 2.0 7.0 131 2216
r 20.44176 2 7 cbr 210 ------- 0 2.0 7.0 128 2213
+ 20.44352 2 7 cbr 210 ------- 0 2.0 7.0 132 2217
- 20.44352 2 7 cbr 210 ------- 0 2.0 7.0 132 2217
r 20.44512 2 7 cbr 210 ------- 0 2.0 7.0 129 2214
+ 20.44688 2 7 cbr 210 ------- 0 2.0 7.0 133 2218
- 20.44688 2 7 cbr 210 ------- 0 2.0 7.0 133 2218
r 20.44848 2 7 cbr 210 ------- 0 2.0 7.0 130 2215
+ 20.45024 2 7 cbr 210 ------- 0 2.0 7.0 134 2219
- 20.45024 2 7 cbr 210 ------- 0 2.0 7.0 134 2219
r 20.45184 2 7 cbr 210 ------- 0 2.0 7.0 131 2216
+ 20.4536 2 7 cbr 210 ------- 0 2.0 7.0 135 2220
- 20.4536 2 7 cbr 210 ------- 0 2.0 7.0 135 2220
r 20.4552 2 7 cbr 210 ------- 0 2.0 7.0 132 2217
+ 20.45696 2 7 cbr 210 ------- 0 2.0 7.0 136 2221
- 20.45696 2 7 cbr 210 ------- 0 2.0 7.0 136 2221
r 20.45856 2 7 cbr 210 ------- 0 2.0 7.0 133 2218
+ 20.46032 2 7 cbr 210 ------- 0 2.0 7.0 137 2222
- 20.46032 2 7 cbr 210 ------- 0 2.0 7.0 137 2222
r 20.46192 2 7 cbr 210 ------- 0 2.0 7.0 134 2219
+ 20.46368 2 7 cbr 210 ------- 0 2.0 7.0 138 2223
- 20.46368 2 7 cbr 210 ------- 0 2.0 7.0 138 2223
r 20.46528 2 7 cbr 210 ------- 0 2.0 7.0 135 2220
+ 20.46704 2 7 cbr 210 ------- 0 2.0 7.0 139 2224
- 20.46704 2 7 cbr 210 ------- 0 2.0 7.0 139 2224
r 20.46864 2 7 cbr 210 ------- 0 2.0 7.0 136 2221
+ 20.4704 2 7 cbr 210 ------- 0 2.0 7.0 140 2225
- 20.4704 2 7 cbr 210 ------- 0 2.0 7.0 140 2225
r 20.472 2 7 cbr 210 ------- 0 2.0 7.0 137 2222
+ 20.47376 2 7 cbr 210 ------- 0 2.0 7.0 141 2226
- 20.47376 2 7 cbr 210 ------- 0 2.0 7.0 141 2226
r 20.47536 2 7 cbr 210 ------- 0 2.0 7.0 138 2223
+ 20.47712 2 7 cbr 210 ------- 0 2.0 7.0 142 2227
- 20.47712 2 7 cbr 210 ------- 0 2.0 7.0 142 2227
r 20.47872 2 7 cbr 210 ------- 0 2.0 7.0 139 2224
+ 20.48048 2 7 cbr 210 ------- 0 2.0 7.0 143 2228
- 20.48048 2 7 cbr 210 ------- 0 2.0 7.0 143 2228
r 20.48208 2 7 cbr 210 ------- 0 2.0 7.0 140 2225
+ 20.48384 2 7 cbr 210 ------- 0 2.0 7.0 144 2229
- 20.48384 2 7 cbr 210 ------- 0 2.0 7.0 144 2229
r 20.48544 2 7 cbr 210 ------- 0 2.0 7.0 141 2226
+ 20.4872 2 7 cbr 210 ------- 0 2.0 7.0 145 2230
- 20.4872 2 7 cbr 210 ------- 0 2.0 7.0 145 2230
r 20.4888 2 7 cbr 210 ------- 0 2.0 7.0 142 2227
+ 20.49056 2 7 cbr 210 ------- 0 2.0 7.0 146 2231
- 20.49056 2 7 cbr 210 ------- 0 2.0 7.0 146 2231
r 20.49216 2 7 cbr 210 ------- 0 2.0 7.0 143 2228
+ 20.49392 2 7 cbr 210 ------- 0 2.0 7.0 147 2232
- 20.49392 2 7 cbr 210 ------- 0 2.0 7.0 147 2232
r 20.49552 2 7 cbr 210 ------- 0 2.0 7.0 144 2229
+ 20.49728 2 7 cbr 210 ------- 0 2.0 7.0 148 2233
- 20.49728 2 7 cbr 210 ------- 0 2.0 7.0 148 2233
r 20.49888 2 7 cbr 210 ------- 0 2.0 7.0 145 2230
+ 20.50064 2 7 cbr 210 ------- 0 2.0 7.0 149 2234
- 20.50064 2 7 cbr 210 ------- 0 2.0 7.0 149 2234
r 20.50224 2 7 cbr 210 ------- 0 2.0 7.0 146 2231
+ 20.504 2 7 cbr 210 ------- 0 2.0 7.0 150 2235
- 20.504 2 7 cbr 210 ------- 0 2.0 7.0 150 2235
r 20.5056 2 7 cbr 210 ------- 0 2.0 7.0 147 2232
+ 20.50736 2 7 cbr 210 ------- 0 2.0 7.0 151 2236
- 20.50736 2 7 cbr 210 ------- 0 2.0 7.0 151 2236
r 20.50896 2 7 cbr 210 ------- 0 2.0 7.0 148 2233
+ 20.51072 2 7 cbr 210 ------- 0 2.0 7.0 152 2237
- 20.51072 2 7 cbr 210 ------- 0 2.0 7.0 152 2237
r 20.51232 2 7 cbr 210 ------- 0 2.0 7.0 149 2234
+ 20.51408 2 7 cbr 210 ------- 0 2.0 7.0 153 2238
- 20.51408 2 7 cbr 210 ------- 0 2.0 7.0 153 2238
r 20.51568 2 7 cbr 210 ------- 0 2.0 7.0 150 2235
+ 20.51744 2 7 cbr 210 ------- 0 2.0 7.0 154 2239
- 20.51744 2 7 cbr 210 ------- 0 2.0 7.0 154 2239
r 20.51904 2 7 cbr 210 ------- 0 2.0 7.0 151 2236
+ 20.5208 2 7 cbr 210 ------- 0 2.0 7.0 155 2240
- 20.5208 2 7 cbr 210 ------- 0 2.0 7.0 155 2240
r 20.5224 2 7 cbr 210 ------- 0 2.0 7.0 152 2237
+ 20.52416 2 7 cbr 210 ------- 0 2.0 7.0 156 2241
- 20.52416 2 7 cbr 210 ------- 0 2.0 7.0 156 2241
r 20.52576 2 7 cbr 210 ------- 0 2.0 7.0 153 2238
+ 20.52752 2 7 cbr 210 ------- 0 2.0 7.0 157 2242
- 20.52752 2 7 cbr 210 ------- 0 2.0 7.0 157 2242
r 20.52912 2 7 cbr 210 ------- 0 2.0 7.0 154 2239
+ 20.53088 2 7 cbr 210 ------- 0 2.0 7.0 158 2243
- 20.53088 2 7 cbr 210 ------- 0 2.0 7.0 158 2243
r 20.53248 2 7 cbr 210 ------- 0 2.0 7.0 155 2240
+ 20.53424 2 7 cbr 210 ------- 0 2.0 7.0 159 2244
- 20.53424 2 7 cbr 210 ------- 0 2.0 7.0 159 2244
r 20.53584 2 7 cbr 210 ------- 0 2.0 7.0 156 2241
+ 20.5376 2 7 cbr 210 ------- 0 2.0 7.0 160 2245
- 20.5376 2 7 cbr 210 ------- 0 2.0 7.0 160 2245
r 20.5392 2 7 cbr 210 ------- 0 2.0 7.0 157 2242
+ 20.54096 2 7 cbr 210 ------- 0 2.0 7.0 161 2246
- 20.54096 2 7 cbr 210 ------- 0 2.0 7.0 161 2246
r 20.54256 2 7 cbr 210 ------- 0 2.0 7.0 158 2243
+ 20.54432 2 7 cbr 210 ------- 0 2.0 7.0 162 2247
- 20.54432 2 7 cbr 210 ------- 0 2.0 7.0 162 2247
r 20.54592 2 7 cbr 210 ------- 0 2.0 7.0 159 2244
+ 20.54768 2 7 cbr 210 ------- 0 2.0 7.0 163 2248
- 20.54768 2 7 cbr 210 ------- 0 2.0 7.0 163 2248
r 20.54928 2 7 cbr 210 ------- 0 2.0 7.0 160 2245
+ 20.55104 2 7 cbr 210 ------- 0 2.0 7.0 164 2249
- 20.55104 2 7 cbr 210 ------- 0 2.0 7.0 164 2249
r 20.55264 2 7 cbr 210 ------- 0 2.0 7.0 161 2246
+ 20.5544 2 7 cbr 210 ------- 0 2.0 7.0 165 2250
- 20.5544 2 7 cbr 210 ------- 0 2.0 7.0 165 2250
r 20.556 2 7 cbr 210 ------- 0 2.0 7.0 162 2247
+ 20.55776 2 7 cbr 210 ------- 0 2.0 7.0 166 2251
- 20.55776 2 7 cbr 210 ------- 0 2.0 7.0 166 2251
r 20.55936 2 7 cbr 210 ------- 0 2.0 7.0 163 2248
+ 20.56112 2 7 cbr 210 ------- 0 2.0 7.0 167 2252
- 20.56112 2 7 cbr 210 ------- 0 2.0 7.0 167 2252
r 20.56272 2 7 cbr 210 ------- 0 2.0 7.0 164 2249
+ 20.56448 2 7 cbr 210 ------- 0 2.0 7.0 168 2253
- 20.56448 2 7 cbr 210 ------- 0 2.0 7.0 168 2253
r 20.56608 2 7 cbr 210 ------- 0 2.0 7.0 165 2250
+ 20.56784 2 7 cbr 210 ------- 0 2.0 7.0 169 2254
- 20.56784 2 7 cbr 210 ------- 0 2.0 7.0 169 2254
r 20.56944 2 7 cbr 210 ------- 0 2.0 7.0 166 2251
+ 20.5712 2 7 cbr 210 ------- 0 2.0 7.0 170 2255
- 20.5712 2 7 cbr 210 ------- 0 2.0 7.0 170 2255
r 20.5728 2 7 cbr 210 ------- 0 2.0 7.0 167 2252
+ 20.57456 2 7 cbr 210 ------- 0 2.0 7.0 171 2256
- 20.57456 2 7 cbr 210 ------- 0 2.0 7.0 171 2256
r 20.57616 2 7 cbr 210 ------- 0 2.0 7.0 168 2253
+ 20.57792 2 7 cbr 210 ------- 0 2.0 7.0 172 2257
- 20.57792 2 7 cbr 210 ------- 0 2.0 7.0 172 2257
r 20.57952 2 7 cbr 210 ------- 0 2.0 7.0 169 2254
+ 20.58128 2 7 cbr 210 ------- 0 2.0 7.0 173 2258
- 20.58128 2 7 cbr 210 ------- 0 2.0 7.0 173 2258
r 20.58288 2 7 cbr 210 ------- 0 2.0 7.0 170 2255
+ 20.58464 2 7 cbr 210 ------- 0 2.0 7.0 174 2259
- 20.58464 2 7 cbr 210 ------- 0 2.0 7.0 174 2259
r 20.58624 2 7 cbr 210 ------- 0 2.0 7.0 171 2256
+ 20.588 2 7 cbr 210 ------- 0 2.0 7.0 175 2260
- 20.588 2 7 cbr 210 ------- 0 2.0 7.0 175 2260
r 20.5896 2 7 cbr 210 ------- 0 2.0 7.0 172 2257
+ 20.59136 2 7 cbr 210 ------- 0 2.0 7.0 176 2261
- 20.59136 2 7 cbr 210 ------- 0 2.0 7.0 176 2261
r 20.59296 2 7 cbr 210 ------- 0 2.0 7.0 173 2258
+ 20.59472 2 7 cbr 210 ------- 0 2.0 7.0 177 2262
- 20.59472 2 7 cbr 210 ------- 0 2.0 7.0 177 2262
r 20.59632 2 7 cbr 210 ------- 0 2.0 7.0 174 2259
+ 20.59808 2 7 cbr 210 ------- 0 2.0 7.0 178 2263
- 20.59808 2 7 cbr 210 ------- 0 2.0 7.0 178 2263
r 20.59968 2 7 cbr 210 ------- 0 2.0 7.0 175 2260
+ 20.60144 2 7 cbr 210 ------- 0 2.0 7.0 179 2264
- 20.60144 2 7 cbr 210 ------- 0 2.0 7.0 179 2264
r 20.60304 2 7 cbr 210 ------- 0 2.0 7.0 176 2261
+ 20.6048 2 7 cbr 210 ------- 0 2.0 7.0 180 2265
- 20.6048 2 7 cbr 210 ------- 0 2.0 7.0 180 2265
r 20.6064 2 7 cbr 210 ------- 0 2.0 7.0 177 2262
+ 20.60816 2 7 cbr 210 ------- 0 2.0 7.0 181 2266
- 20.60816 2 7 cbr 210 ------- 0 2.0 7.0 181 2266
r 20.60976 2 7 cbr 210 ------- 0 2.0 7.0 178 2263
+ 20.61152 2 7 cbr 210 ------- 0 2.0 7.0 182 2267
- 20.61152 2 7 cbr 210 ------- 0 2.0 7.0 182 2267
r 20.61312 2 7 cbr 210 ------- 0 2.0 7.0 179 2264
+ 20.61488 2 7 cbr 210 ------- 0 2.0 7.0 183 2268
- 20.61488 2 7 cbr 210 ------- 0 2.0 7.0 183 2268
r 20.61648 2 7 cbr 210 ------- 0 2.0 7.0 180 2265
+ 20.61824 2 7 cbr 210 ------- 0 2.0 7.0 184 2269
- 20.61824 2 7 cbr 210 ------- 0 2.0 7.0 184 2269
r 20.61984 2 7 cbr 210 ------- 0 2.0 7.0 181 2266
+ 20.6216 2 7 cbr 210 ------- 0 2.0 7.0 185 2270
- 20.6216 2 7 cbr 210 ------- 0 2.0 7.0 185 2270
r 20.6232 2 7 cbr 210 ------- 0 2.0 7.0 182 2267
+ 20.62496 2 7 cbr 210 ------- 0 2.0 7.0 186 2271
- 20.62496 2 7 cbr 210 ------- 0 2.0 7.0 186 2271
r 20.62656 2 7 cbr 210 ------- 0 2.0 7.0 183 2268
+ 20.62832 2 7 cbr 210 ------- 0 2.0 7.0 187 2272
- 20.62832 2 7 cbr 210 ------- 0 2.0 7.0 187 2272
r 20.62992 2 7 cbr 210 ------- 0 2.0 7.0 184 2269
+ 20.63168 2 7 cbr 210 ------- 0 2.0 7.0 188 2273
- 20.63168 2 7 cbr 210 ------- 0 2.0 7.0 188 2273
r 20.63328 2 7 cbr 210 ------- 0 2.0 7.0 185 2270
+ 20.63504 2 7 cbr 210 ------- 0 2.0 7.0 189 2274
- 20.63504 2 7 cbr 210 ------- 0 2.0 7.0 189 2274
r 20.63664 2 7 cbr 210 ------- 0 2.0 7.0 186 2271
+ 20.6384 2 7 cbr 210 ------- 0 2.0 7.0 190 2275
- 20.6384 2 7 cbr 210 ------- 0 2.0 7.0 190 2275
r 20.64 2 7 cbr 210 ------- 0 2.0 7.0 187 2272
+ 20.64176 2 7 cbr 210 ------- 0 2.0 7.0 191 2276
- 20.64176 2 7 cbr 210 ------- 0 2.0 7.0 191 2276
r 20.64336 2 7 cbr 210 ------- 0 2.0 7.0 188 2273
+ 20.64512 2 7 cbr 210 ------- 0 2.0 7.0 192 2277
- 20.64512 2 7 cbr 210 ------- 0 2.0 7.0 192 2277
r 20.64672 2 7 cbr 210 ------- 0 2.0 7.0 189 2274
+ 20.64848 2 7 cbr 210 ------- 0 2.0 7.0 193 2278
- 20.64848 2 7 cbr 210 ------- 0 2.0 7.0 193 2278
r 20.65008 2 7 cbr 210 ------- 0 2.0 7.0 190 2275
+ 20.65184 2 7 cbr 210 ------- 0 2.0 7.0 194 2279
- 20.65184 2 7 cbr 210 ------- 0 2.0 7.0 194 2279
r 20.65344 2 7 cbr 210 ------- 0 2.0 7.0 191 2276
+ 20.6552 2 7 cbr 210 ------- 0 2.0 7.0 195 2280
- 20.6552 2 7 cbr 210 ------- 0 2.0 7.0 195 2280
r 20.6568 2 7 cbr 210 ------- 0 2.0 7.0 192 2277
+ 20.65856 2 7 cbr 210 ------- 0 2.0 7.0 196 2281
- 20.65856 2 7 cbr 210 ------- 0 2.0 7.0 196 2281
r 20.66016 2 7 cbr 210 ------- 0 2.0 7.0 193 2278
+ 20.66192 2 7 cbr 210 ------- 0 2.0 7.0 197 2282
- 20.66192 2 7 cbr 210 ------- 0 2.0 7.0 197 2282
r 20.66352 2 7 cbr 210 ------- 0 2.0 7.0 194 2279
+ 20.66528 2 7 cbr 210 ------- 0 2.0 7.0 198 2283
- 20.66528 2 7 cbr 210 ------- 0 2.0 7.0 198 2283
r 20.66688 2 7 cbr 210 ------- 0 2.0 7.0 195 2280
+ 20.66864 2 7 cbr 210 ------- 0 2.0 7.0 199 2284
- 20.66864 2 7 cbr 210 ------- 0 2.0 7.0 199 2284
r 20.67024 2 7 cbr 210 ------- 0 2.0 7.0 196 2281
+ 20.672 2 7 cbr 210 ------- 0 2.0 7.0 200 2285
- 20.672 2 7 cbr 210 ------- 0 2.0 7.0 200 2285
r 20.6736 2 7 cbr 210 ------- 0 2.0 7.0 197 2282
+ 20.67536 2 7 cbr 210 ------- 0 2.0 7.0 201 2286
- 20.67536 2 7 cbr 210 ------- 0 2.0 7.0 201 2286
r 20.67696 2 7 cbr 210 ------- 0 2.0 7.0 198 2283
+ 20.67872 2 7 cbr 210 ------- 0 2.0 7.0 202 2287
- 20.67872 2 7 cbr 210 ------- 0 2.0 7.0 202 2287
r 20.68032 2 7 cbr 210 ------- 0 2.0 7.0 199 2284
+ 20.68208 2 7 cbr 210 ------- 0 2.0 7.0 203 2288
- 20.68208 2 7 cbr 210 ------- 0 2.0 7.0 203 2288
r 20.68368 2 7 cbr 210 ------- 0 2.0 7.0 200 2285