+ 1 0 7 cbr 500 ------- 0 0.0 8.0 0 0
- 1 0 7 cbr 500 ------- 0 0.0 8.0 0 0
+ 1.005 0 7 cbr 500 ------- 0 0.0 8.0 1 1
- 1.005 0 7 cbr 500 ------- 0 0.0 8.0 1 1
+ 1.01 0 7 cbr 500 ------- 0 0.0 8.0 2 2
- 1.01 0 7 cbr 500 ------- 0 0.0 8.0 2 2
r 1.014 0 7 cbr 500 ------- 0 0.0 8.0 0 0
+ 1.014 7 8 cbr 500 ------- 0 0.0 8.0 0 0
- 1.014 7 8 cbr 500 ------- 0 0.0 8.0 0 0
+ 1.015 0 7 cbr 500 ------- 0 0.0 8.0 3 3
- 1.015 0 7 cbr 500 ------- 0 0.0 8.0 3 3
r 1.019 0 7 cbr 500 ------- 0 0.0 8.0 1 1
+ 1.019 7 8 cbr 500 ------- 0 0.0 8.0 1 1
- 1.019 7 8 cbr 500 ------- 0 0.0 8.0 1 1
+ 1.02 0 7 cbr 500 ------- 0 0.0 8.0 4 4
- 1.02 0 7 cbr 500 ------- 0 0.0 8.0 4 4
r 1.024 0 7 cbr 500 ------- 0 0.0 8.0 2 2
+ 1.024 7 8 cbr 500 ------- 0 0.0 8.0 2 2
- 1.024 7 8 cbr 500 ------- 0 0.0 8.0 2 2
+ 1.025 0 7 cbr 500 ------- 0 0.0 8.0 5 5
- 1.025 0 7 cbr 500 ------- 0 0.0 8.0 5 5
r 1.028 7 8 cbr 500 ------- 0 0.0 8.0 0 0
r 1.029 0 7 cbr 500 ------- 0 0.0 8.0 3 3
+ 1.029 7 8 cbr 500 ------- 0 0.0 8.0 3 3
- 1.029 7 8 cbr 500 ------- 0 0.0 8.0 3 3
+ 1.03 0 7 cbr 500 ------- 0 0.0 8.0 6 6
- 1.03 0 7 cbr 500 ------- 0 0.0 8.0 6 6
r 1.033 7 8 cbr 500 ------- 0 0.0 8.0 1 1
r 1.034 0 7 cbr 500 ------- 0 0.0 8.0 4 4
+ 1.034 7 8 cbr 500 ------- 0 0.0 8.0 4 4
- 1.034 7 8 cbr 500 ------- 0 0.0 8.0 4 4
+ 1.035 0 7 cbr 500 ------- 0 0.0 8.0 7 7
- 1.035 0 7 cbr 500 ------- 0 0.0 8.0 7 7
r 1.038 7 8 cbr 500 ------- 0 0.0 8.0 2 2
r 1.039 0 7 cbr 500 ------- 0 0.0 8.0 5 5
+ 1.039 7 8 cbr 500 ------- 0 0.0 8.0 5 5
- 1.039 7 8 cbr 500 ------- 0 0.0 8.0 5 5
+ 1.04 0 7 cbr 500 ------- 0 0.0 8.0 8 8
- 1.04 0 7 cbr 500 ------- 0 0.0 8.0 8 8
r 1.043 7 8 cbr 500 ------- 0 0.0 8.0 3 3
r 1.044 0 7 cbr 500 ------- 0 0.0 8.0 6 6
+ 1.044 7 8 cbr 500 ------- 0 0.0 8.0 6 6
- 1.044 7 8 cbr 500 ------- 0 0.0 8.0 6 6
+ 1.045 0 7 cbr 500 ------- 0 0.0 8.0 9 9
- 1.045 0 7 cbr 500 ------- 0 0.0 8.0 9 9
r 1.048 7 8 cbr 500 ------- 0 0.0 8.0 4 4
r 1.049 0 7 cbr 500 ------- 0 0.0 8.0 7 7
+ 1.049 7 8 cbr 500 ------- 0 0.0 8.0 7 7
- 1.049 7 8 cbr 500 ------- 0 0.0 8.0 7 7
+ 1.05 0 7 cbr 500 ------- 0 0.0 8.0 10 10
- 1.05 0 7 cbr 500 ------- 0 0.0 8.0 10 10
r 1.053 7 8 cbr 500 ------- 0 0.0 8.0 5 5
r 1.054 0 7 cbr 500 ------- 0 0.0 8.0 8 8
+ 1.054 7 8 cbr 500 ------- 0 0.0 8.0 8 8
- 1.054 7 8 cbr 500 ------- 0 0.0 8.0 8 8
+ 1.055 0 7 cbr 500 ------- 0 0.0 8.0 11 11
- 1.055 0 7 cbr 500 ------- 0 0.0 8.0 11 11
r 1.058 7 8 cbr 500 ------- 0 0.0 8.0 6 6
r 1.059 0 7 cbr 500 ------- 0 0.0 8.0 9 9
+ 1.059 7 8 cbr 500 ------- 0 0.0 8.0 9 9
- 1.059 7 8 cbr 500 ------- 0 0.0 8.0 9 9
+ 1.06 0 7 cbr 500 ------- 0 0.0 8.0 12 12
- 1.06 0 7 cbr 500 ------- 0 0.0 8.0 12 12
r 1.063 7 8 cbr 500 ------- 0 0.0 8.0 7 7
r 1.064 0 7 cbr 500 ------- 0 0.0 8.0 10 10
+ 1.064 7 8 cbr 500 ------- 0 0.0 8.0 10 10
- 1.064 7 8 cbr 500 ------- 0 0.0 8.0 10 10
+ 1.065 0 7 cbr 500 ------- 0 0.0 8.0 13 13
- 1.065 0 7 cbr 500 ------- 0 0.0 8.0 13 13
r 1.068 7 8 cbr 500 ------- 0 0.0 8.0 8 8
r 1.069 0 7 cbr 500 ------- 0 0.0 8.0 11 11
+ 1.069 7 8 cbr 500 ------- 0 0.0 8.0 11 11
- 1.069 7 8 cbr 500 ------- 0 0.0 8.0 11 11
+ 1.07 0 7 cbr 500 ------- 0 0.0 8.0 14 14
- 1.07 0 7 cbr 500 ------- 0 0.0 8.0 14 14
r 1.073 7 8 cbr 500 ------- 0 0.0 8.0 9 9
r 1.074 0 7 cbr 500 ------- 0 0.0 8.0 12 12
+ 1.074 7 8 cbr 500 ------- 0 0.0 8.0 12 12
- 1.074 7 8 cbr 500 ------- 0 0.0 8.0 12 12
+ 1.075 0 7 cbr 500 ------- 0 0.0 8.0 15 15
- 1.075 0 7 cbr 500 ------- 0 0.0 8.0 15 15
r 1.078 7 8 cbr 500 ------- 0 0.0 8.0 10 10
r 1.079 0 7 cbr 500 ------- 0 0.0 8.0 13 13
+ 1.079 7 8 cbr 500 ------- 0 0.0 8.0 13 13
- 1.079 7 8 cbr 500 ------- 0 0.0 8.0 13 13
+ 1.08 0 7 cbr 500 ------- 0 0.0 8.0 16 16
- 1.08 0 7 cbr 500 ------- 0 0.0 8.0 16 16
r 1.083 7 8 cbr 500 ------- 0 0.0 8.0 11 11
r 1.084 0 7 cbr 500 ------- 0 0.0 8.0 14 14
+ 1.084 7 8 cbr 500 ------- 0 0.0 8.0 14 14
- 1.084 7 8 cbr 500 ------- 0 0.0 8.0 14 14
+ 1.085 0 7 cbr 500 ------- 0 0.0 8.0 17 17
- 1.085 0 7 cbr 500 ------- 0 0.0 8.0 17 17
r 1.088 7 8 cbr 500 ------- 0 0.0 8.0 12 12
r 1.089 0 7 cbr 500 ------- 0 0.0 8.0 15 15
+ 1.089 7 8 cbr 500 ------- 0 0.0 8.0 15 15
- 1.089 7 8 cbr 500 ------- 0 0.0 8.0 15 15
+ 1.09 0 7 cbr 500 ------- 0 0.0 8.0 18 18
- 1.09 0 7 cbr 500 ------- 0 0.0 8.0 18 18
r 1.093 7 8 cbr 500 ------- 0 0.0 8.0 13 13
r 1.094 0 7 cbr 500 ------- 0 0.0 8.0 16 16
+ 1.094 7 8 cbr 500 ------- 0 0.0 8.0 16 16
- 1.094 7 8 cbr 500 ------- 0 0.0 8.0 16 16
+ 1.095 0 7 cbr 500 ------- 0 0.0 8.0 19 19
- 1.095 0 7 cbr 500 ------- 0 0.0 8.0 19 19
r 1.098 7 8 cbr 500 ------- 0 0.0 8.0 14 14
r 1.099 0 7 cbr 500 ------- 0 0.0 8.0 17 17
+ 1.099 7 8 cbr 500 ------- 0 0.0 8.0 17 17
- 1.099 7 8 cbr 500 ------- 0 0.0 8.0 17 17
+ 1.1 0 7 cbr 500 ------- 0 0.0 8.0 20 20
- 1.1 0 7 cbr 500 ------- 0 0.0 8.0 20 20
r 1.103 7 8 cbr 500 ------- 0 0.0 8.0 15 15
r 1.104 0 7 cbr 500 ------- 0 0.0 8.0 18 18
+ 1.104 7 8 cbr 500 ------- 0 0.0 8.0 18 18
- 1.104 7 8 cbr 500 ------- 0 0.0 8.0 18 18
+ 1.105 0 7 cbr 500 ------- 0 0.0 8.0 21 21
- 1.105 0 7 cbr 500 ------- 0 0.0 8.0 21 21
r 1.108 7 8 cbr 500 ------- 0 0.0 8.0 16 16
r 1.109 0 7 cbr 500 ------- 0 0.0 8.0 19 19
+ 1.109 7 8 cbr 500 ------- 0 0.0 8.0 19 19
- 1.109 7 8 cbr 500 ------- 0 0.0 8.0 19 19
+ 1.11 0 7 cbr 500 ------- 0 0.0 8.0 22 22
- 1.11 0 7 cbr 500 ------- 0 0.0 8.0 22 22
r 1.113 7 8 cbr 500 ------- 0 0.0 8.0 17 17
r 1.114 0 7 cbr 500 ------- 0 0.0 8.0 20 20
+ 1.114 7 8 cbr 500 ------- 0 0.0 8.0 20 20
- 1.114 7 8 cbr 500 ------- 0 0.0 8.0 20 20
+ 1.115 0 7 cbr 500 ------- 0 0.0 8.0 23 23
- 1.115 0 7 cbr 500 ------- 0 0.0 8.0 23 23
r 1.118 7 8 cbr 500 ------- 0 0.0 8.0 18 18
r 1.119 0 7 cbr 500 ------- 0 0.0 8.0 21 21
+ 1.119 7 8 cbr 500 ------- 0 0.0 8.0 21 21
- 1.119 7 8 cbr 500 ------- 0 0.0 8.0 21 21
+ 1.12 0 7 cbr 500 ------- 0 0.0 8.0 24 24
- 1.12 0 7 cbr 500 ------- 0 0.0 8.0 24 24
r 1.123 7 8 cbr 500 ------- 0 0.0 8.0 19 19
r 1.124 0 7 cbr 500 ------- 0 0.0 8.0 22 22
+ 1.124 7 8 cbr 500 ------- 0 0.0 8.0 22 22
- 1.124 7 8 cbr 500 ------- 0 0.0 8.0 22 22
+ 1.125 0 7 cbr 500 ------- 0 0.0 8.0 25 25
- 1.125 0 7 cbr 500 ------- 0 0.0 8.0 25 25
r 1.128 7 8 cbr 500 ------- 0 0.0 8.0 20 20
r 1.129 0 7 cbr 500 ------- 0 0.0 8.0 23 23
+ 1.129 7 8 cbr 500 ------- 0 0.0 8.0 23 23
- 1.129 7 8 cbr 500 ------- 0 0.0 8.0 23 23
+ 1.13 0 7 cbr 500 ------- 0 0.0 8.0 26 26
- 1.13 0 7 cbr 500 ------- 0 0.0 8.0 26 26
r 1.133 7 8 cbr 500 ------- 0 0.0 8.0 21 21
r 1.134 0 7 cbr 500 ------- 0 0.0 8.0 24 24
+ 1.134 7 8 cbr 500 ------- 0 0.0 8.0 24 24
- 1.134 7 8 cbr 500 ------- 0 0.0 8.0 24 24
+ 1.135 0 7 cbr 500 ------- 0 0.0 8.0 27 27
- 1.135 0 7 cbr 500 ------- 0 0.0 8.0 27 27
r 1.138 7 8 cbr 500 ------- 0 0.0 8.0 22 22
r 1.139 0 7 cbr 500 ------- 0 0.0 8.0 25 25
+ 1.139 7 8 cbr 500 ------- 0 0.0 8.0 25 25
- 1.139 7 8 cbr 500 ------- 0 0.0 8.0 25 25
+ 1.14 0 7 cbr 500 ------- 0 0.0 8.0 28 28
- 1.14 0 7 cbr 500 ------- 0 0.0 8.0 28 28
r 1.143 7 8 cbr 500 ------- 0 0.0 8.0 23 23
r 1.144 0 7 cbr 500 ------- 0 0.0 8.0 26 26
+ 1.144 7 8 cbr 500 ------- 0 0.0 8.0 26 26
- 1.144 7 8 cbr 500 ------- 0 0.0 8.0 26 26
+ 1.145 0 7 cbr 500 ------- 0 0.0 8.0 29 29
- 1.145 0 7 cbr 500 ------- 0 0.0 8.0 29 29
r 1.148 7 8 cbr 500 ------- 0 0.0 8.0 24 24
r 1.149 0 7 cbr 500 ------- 0 0.0 8.0 27 27
+ 1.149 7 8 cbr 500 ------- 0 0.0 8.0 27 27
- 1.149 7 8 cbr 500 ------- 0 0.0 8.0 27 27
+ 1.15 0 7 cbr 500 ------- 0 0.0 8.0 30 30
- 1.15 0 7 cbr 500 ------- 0 0.0 8.0 30 30
r 1.153 7 8 cbr 500 ------- 0 0.0 8.0 25 25
r 1.154 0 7 cbr 500 ------- 0 0.0 8.0 28 28
+ 1.154 7 8 cbr 500 ------- 0 0.0 8.0 28 28
- 1.154 7 8 cbr 500 ------- 0 0.0 8.0 28 28
+ 1.155 0 7 cbr 500 ------- 0 0.0 8.0 31 31
- 1.155 0 7 cbr 500 ------- 0 0.0 8.0 31 31
r 1.158 7 8 cbr 500 ------- 0 0.0 8.0 26 26
r 1.159 0 7 cbr 500 ------- 0 0.0 8.0 29 29
+ 1.159 7 8 cbr 500 ------- 0 0.0 8.0 29 29
- 1.159 7 8 cbr 500 ------- 0 0.0 8.0 29 29
+ 1.16 0 7 cbr 500 ------- 0 0.0 8.0 32 32
- 1.16 0 7 cbr 500 ------- 0 0.0 8.0 32 32
r 1.163 7 8 cbr 500 ------- 0 0.0 8.0 27 27
r 1.164 0 7 cbr 500 ------- 0 0.0 8.0 30 30
+ 1.164 7 8 cbr 500 ------- 0 0.0 8.0 30 30
- 1.164 7 8 cbr 500 ------- 0 0.0 8.0 30 30
+ 1.165 0 7 cbr 500 ------- 0 0.0 8.0 33 33
- 1.165 0 7 cbr 500 ------- 0 0.0 8.0 33 33
r 1.168 7 8 cbr 500 ------- 0 0.0 8.0 28 28
r 1.169 0 7 cbr 500 ------- 0 0.0 8.0 31 31
+ 1.169 7 8 cbr 500 ------- 0 0.0 8.0 31 31
- 1.169 7 8 cbr 500 ------- 0 0.0 8.0 31 31
+ 1.17 0 7 cbr 500 ------- 0 0.0 8.0 34 34
- 1.17 0 7 cbr 500 ------- 0 0.0 8.0 34 34
r 1.173 7 8 cbr 500 ------- 0 0.0 8.0 29 29
r 1.174 0 7 cbr 500 ------- 0 0.0 8.0 32 32
+ 1.174 7 8 cbr 500 ------- 0 0.0 8.0 32 32
- 1.174 7 8 cbr 500 ------- 0 0.0 8.0 32 32
+ 1.175 0 7 cbr 500 ------- 0 0.0 8.0 35 35
- 1.175 0 7 cbr 500 ------- 0 0.0 8.0 35 35
r 1.178 7 8 cbr 500 ------- 0 0.0 8.0 30 30
r 1.179 0 7 cbr 500 ------- 0 0.0 8.0 33 33
+ 1.179 7 8 cbr 500 ------- 0 0.0 8.0 33 33
- 1.179 7 8 cbr 500 ------- 0 0.0 8.0 33 33
+ 1.18 0 7 cbr 500 ------- 0 0.0 8.0 36 36
- 1.18 0 7 cbr 500 ------- 0 0.0 8.0 36 36
r 1.183 7 8 cbr 500 ------- 0 0.0 8.0 31 31
r 1.184 0 7 cbr 500 ------- 0 0.0 8.0 34 34
+ 1.184 7 8 cbr 500 ------- 0 0.0 8.0 34 34
- 1.184 7 8 cbr 500 ------- 0 0.0 8.0 34 34
+ 1.185 0 7 cbr 500 ------- 0 0.0 8.0 37 37
- 1.185 0 7 cbr 500 ------- 0 0.0 8.0 37 37
r 1.188 7 8 cbr 500 ------- 0 0.0 8.0 32 32
r 1.189 0 7 cbr 500 ------- 0 0.0 8.0 35 35
+ 1.189 7 8 cbr 500 ------- 0 0.0 8.0 35 35
- 1.189 7 8 cbr 500 ------- 0 0.0 8.0 35 35
+ 1.19 0 7 cbr 500 ------- 0 0.0 8.0 38 38
- 1.19 0 7 cbr 500 ------- 0 0.0 8.0 38 38
r 1.193 7 8 cbr 500 ------- 0 0.0 8.0 33 33
r 1.194 0 7 cbr 500 ------- 0 0.0 8.0 36 36
+ 1.194 7 8 cbr 500 ------- 0 0.0 8.0 36 36
- 1.194 7 8 cbr 500 ------- 0 0.0 8.0 36 36
+ 1.195 0 7 cbr 500 ------- 0 0.0 8.0 39 39
- 1.195 0 7 cbr 500 ------- 0 0.0 8.0 39 39
r 1.198 7 8 cbr 500 ------- 0 0.0 8.0 34 34
r 1.199 0 7 cbr 500 ------- 0 0.0 8.0 37 37
+ 1.199 7 8 cbr 500 ------- 0 0.0 8.0 37 37
- 1.199 7 8 cbr 500 ------- 0 0.0 8.0 37 37
+ 1.2 0 7 cbr 500 ------- 0 0.0 8.0 40 40
- 1.2 0 7 cbr 500 ------- 0 0.0 8.0 40 40
r 1.203 7 8 cbr 500 ------- 0 0.0 8.0 35 35
r 1.204 0 7 cbr 500 ------- 0 0.0 8.0 38 38
+ 1.204 7 8 cbr 500 ------- 0 0.0 8.0 38 38
- 1.204 7 8 cbr 500 ------- 0 0.0 8.0 38 38
+ 1.205 0 7 cbr 500 ------- 0 0.0 8.0 41 41
- 1.205 0 7 cbr 500 ------- 0 0.0 8.0 41 41
r 1.208 7 8 cbr 500 ------- 0 0.0 8.0 36 36
r 1.209 0 7 cbr 500 ------- 0 0.0 8.0 39 39
+ 1.209 7 8 cbr 500 ------- 0 0.0 8.0 39 39
- 1.209 7 8 cbr 500 ------- 0 0.0 8.0 39 39
+ 1.21 0 7 cbr 500 ------- 0 0.0 8.0 42 42
- 1.21 0 7 cbr 500 ------- 0 0.0 8.0 42 42
r 1.213 7 8 cbr 500 ------- 0 0.0 8.0 37 37
r 1.214 0 7 cbr 500 ------- 0 0.0 8.0 40 40
+ 1.214 7 8 cbr 500 ------- 0 0.0 8.0 40 40
- 1.214 7 8 cbr 500 ------- 0 0.0 8.0 40 40
+ 1.215 0 7 cbr 500 ------- 0 0.0 8.0 43 43
- 1.215 0 7 cbr 500 ------- 0 0.0 8.0 43 43
r 1.218 7 8 cbr 500 ------- 0 0.0 8.0 38 38
r 1.219 0 7 cbr 500 ------- 0 0.0 8.0 41 41
+ 1.219 7 8 cbr 500 ------- 0 0.0 8.0 41 41
- 1.219 7 8 cbr 500 ------- 0 0.0 8.0 41 41
+ 1.22 0 7 cbr 500 ------- 0 0.0 8.0 44 44
- 1.22 0 7 cbr 500 ------- 0 0.0 8.0 44 44
r 1.223 7 8 cbr 500 ------- 0 0.0 8.0 39 39
r 1.224 0 7 cbr 500 ------- 0 0.0 8.0 42 42
+ 1.224 7 8 cbr 500 ------- 0 0.0 8.0 42 42
- 1.224 7 8 cbr 500 ------- 0 0.0 8.0 42 42
+ 1.225 0 7 cbr 500 ------- 0 0.0 8.0 45 45
- 1.225 0 7 cbr 500 ------- 0 0.0 8.0 45 45
r 1.228 7 8 cbr 500 ------- 0 0.0 8.0 40 40
r 1.229 0 7 cbr 500 ------- 0 0.0 8.0 43 43
+ 1.229 7 8 cbr 500 ------- 0 0.0 8.0 43 43
- 1.229 7 8 cbr 500 ------- 0 0.0 8.0 43 43
+ 1.23 0 7 cbr 500 ------- 0 0.0 8.0 46 46
- 1.23 0 7 cbr 500 ------- 0 0.0 8.0 46 46
r 1.233 7 8 cbr 500 ------- 0 0.0 8.0 41 41
r 1.234 0 7 cbr 500 ------- 0 0.0 8.0 44 44
+ 1.234 7 8 cbr 500 ------- 0 0.0 8.0 44 44
- 1.234 7 8 cbr 500 ------- 0 0.0 8.0 44 44
+ 1.235 0 7 cbr 500 ------- 0 0.0 8.0 47 47
- 1.235 0 7 cbr 500 ------- 0 0.0 8.0 47 47
r 1.238 7 8 cbr 500 ------- 0 0.0 8.0 42 42
r 1.239 0 7 cbr 500 ------- 0 0.0 8.0 45 45
+ 1.239 7 8 cbr 500 ------- 0 0.0 8.0 45 45
- 1.239 7 8 cbr 500 ------- 0 0.0 8.0 45 45
+ 1.24 0 7 cbr 500 ------- 0 0.0 8.0 48 48
- 1.24 0 7 cbr 500 ------- 0 0.0 8.0 48 48
r 1.243 7 8 cbr 500 ------- 0 0.0 8.0 43 43
r 1.244 0 7 cbr 500 ------- 0 0.0 8.0 46 46
+ 1.244 7 8 cbr 500 ------- 0 0.0 8.0 46 46
- 1.244 7 8 cbr 500 ------- 0 0.0 8.0 46 46
+ 1.245 0 7 cbr 500 ------- 0 0.0 8.0 49 49
- 1.245 0 7 cbr 500 ------- 0 0.0 8.0 49 49
r 1.248 7 8 cbr 500 ------- 0 0.0 8.0 44 44
r 1.249 0 7 cbr 500 ------- 0 0.0 8.0 47 47
+ 1.249 7 8 cbr 500 ------- 0 0.0 8.0 47 47
- 1.249 7 8 cbr 500 ------- 0 0.0 8.0 47 47
+ 1.25 0 7 cbr 500 ------- 0 0.0 8.0 50 50
- 1.25 0 7 cbr 500 ------- 0 0.0 8.0 50 50
r 1.253 7 8 cbr 500 ------- 0 0.0 8.0 45 45
r 1.254 0 7 cbr 500 ------- 0 0.0 8.0 48 48
+ 1.254 7 8 cbr 500 ------- 0 0.0 8.0 48 48
- 1.254 7 8 cbr 500 ------- 0 0.0 8.0 48 48
+ 1.255 0 7 cbr 500 ------- 0 0.0 8.0 51 51
- 1.255 0 7 cbr 500 ------- 0 0.0 8.0 51 51
r 1.258 7 8 cbr 500 ------- 0 0.0 8.0 46 46
r 1.259 0 7 cbr 500 ------- 0 0.0 8.0 49 49
+ 1.259 7 8 cbr 500 ------- 0 0.0 8.0 49 49
- 1.259 7 8 cbr 500 ------- 0 0.0 8.0 49 49
+ 1.26 0 7 cbr 500 ------- 0 0.0 8.0 52 52
- 1.26 0 7 cbr 500 ------- 0 0.0 8.0 52 52
r 1.263 7 8 cbr 500 ------- 0 0.0 8.0 47 47
r 1.264 0 7 cbr 500 ------- 0 0.0 8.0 50 50
+ 1.264 7 8 cbr 500 ------- 0 0.0 8.0 50 50
- 1.264 7 8 cbr 500 ------- 0 0.0 8.0 50 50
+ 1.265 0 7 cbr 500 ------- 0 0.0 8.0 53 53
- 1.265 0 7 cbr 500 ------- 0 0.0 8.0 53 53
r 1.268 7 8 cbr 500 ------- 0 0.0 8.0 48 48
r 1.269 0 7 cbr 500 ------- 0 0.0 8.0 51 51
+ 1.269 7 8 cbr 500 ------- 0 0.0 8.0 51 51
- 1.269 7 8 cbr 500 ------- 0 0.0 8.0 51 51
+ 1.27 0 7 cbr 500 ------- 0 0.0 8.0 54 54
- 1.27 0 7 cbr 500 ------- 0 0.0 8.0 54 54
r 1.273 7 8 cbr 500 ------- 0 0.0 8.0 49 49
r 1.274 0 7 cbr 500 ------- 0 0.0 8.0 52 52
+ 1.274 7 8 cbr 500 ------- 0 0.0 8.0 52 52
- 1.274 7 8 cbr 500 ------- 0 0.0 8.0 52 52
+ 1.275 0 7 cbr 500 ------- 0 0.0 8.0 55 55
- 1.275 0 7 cbr 500 ------- 0 0.0 8.0 55 55
r 1.278 7 8 cbr 500 ------- 0 0.0 8.0 50 50
r 1.279 0 7 cbr 500 ------- 0 0.0 8.0 53 53
+ 1.279 7 8 cbr 500 ------- 0 0.0 8.0 53 53
- 1.279 7 8 cbr 500 ------- 0 0.0 8.0 53 53
+ 1.28 0 7 cbr 500 ------- 0 0.0 8.0 56 56
- 1.28 0 7 cbr 500 ------- 0 0.0 8.0 56 56
r 1.283 7 8 cbr 500 ------- 0 0.0 8.0 51 51
r 1.284 0 7 cbr 500 ------- 0 0.0 8.0 54 54
+ 1.284 7 8 cbr 500 ------- 0 0.0 8.0 54 54
- 1.284 7 8 cbr 500 ------- 0 0.0 8.0 54 54
+ 1.285 0 7 cbr 500 ------- 0 0.0 8.0 57 57
- 1.285 0 7 cbr 500 ------- 0 0.0 8.0 57 57
r 1.288 7 8 cbr 500 ------- 0 0.0 8.0 52 52
r 1.289 0 7 cbr 500 ------- 0 0.0 8.0 55 55
+ 1.289 7 8 cbr 500 ------- 0 0.0 8.0 55 55
- 1.289 7 8 cbr 500 ------- 0 0.0 8.0 55 55
+ 1.29 0 7 cbr 500 ------- 0 0.0 8.0 58 58
- 1.29 0 7 cbr 500 ------- 0 0.0 8.0 58 58
r 1.293 7 8 cbr 500 ------- 0 0.0 8.0 53 53
r 1.294 0 7 cbr 500 ------- 0 0.0 8.0 56 56
+ 1.294 7 8 cbr 500 ------- 0 0.0 8.0 56 56
- 1.294 7 8 cbr 500 ------- 0 0.0 8.0 56 56
+ 1.295 0 7 cbr 500 ------- 0 0.0 8.0 59 59
- 1.295 0 7 cbr 500 ------- 0 0.0 8.0 59 59
r 1.298 7 8 cbr 500 ------- 0 0.0 8.0 54 54
r 1.299 0 7 cbr 500 ------- 0 0.0 8.0 57 57
+ 1.299 7 8 cbr 500 ------- 0 0.0 8.0 57 57
- 1.299 7 8 cbr 500 ------- 0 0.0 8.0 57 57
+ 1.3 0 7 cbr 500 ------- 0 0.0 8.0 60 60
- 1.3 0 7 cbr 500 ------- 0 0.0 8.0 60 60
r 1.303 7 8 cbr 500 ------- 0 0.0 8.0 55 55
r 1.304 0 7 cbr 500 ------- 0 0.0 8.0 58 58
+ 1.304 7 8 cbr 500 ------- 0 0.0 8.0 58 58
- 1.304 7 8 cbr 500 ------- 0 0.0 8.0 58 58
+ 1.305 0 7 cbr 500 ------- 0 0.0 8.0 61 61
- 1.305 0 7 cbr 500 ------- 0 0.0 8.0 61 61
r 1.308 7 8 cbr 500 ------- 0 0.0 8.0 56 56
r 1.309 0 7 cbr 500 ------- 0 0.0 8.0 59 59
+ 1.309 7 8 cbr 500 ------- 0 0.0 8.0 59 59
- 1.309 7 8 cbr 500 ------- 0 0.0 8.0 59 59
+ 1.31 0 7 cbr 500 ------- 0 0.0 8.0 62 62
- 1.31 0 7 cbr 500 ------- 0 0.0 8.0 62 62
r 1.313 7 8 cbr 500 ------- 0 0.0 8.0 57 57
r 1.314 0 7 cbr 500 ------- 0 0.0 8.0 60 60
+ 1.314 7 8 cbr 500 ------- 0 0.0 8.0 60 60
- 1.314 7 8 cbr 500 ------- 0 0.0 8.0 60 60
+ 1.315 0 7 cbr 500 ------- 0 0.0 8.0 63 63
- 1.315 0 7 cbr 500 ------- 0 0.0 8.0 63 63
r 1.318 7 8 cbr 500 ------- 0 0.0 8.0 58 58
r 1.319 0 7 cbr 500 ------- 0 0.0 8.0 61 61
+ 1.319 7 8 cbr 500 ------- 0 0.0 8.0 61 61
- 1.319 7 8 cbr 500 ------- 0 0.0 8.0 61 61
+ 1.32 0 7 cbr 500 ------- 0 0.0 8.0 64 64
- 1.32 0 7 cbr 500 ------- 0 0.0 8.0 64 64
r 1.323 7 8 cbr 500 ------- 0 0.0 8.0 59 59
r 1.324 0 7 cbr 500 ------- 0 0.0 8.0 62 62
+ 1.324 7 8 cbr 500 ------- 0 0.0 8.0 62 62
- 1.324 7 8 cbr 500 ------- 0 0.0 8.0 62 62
+ 1.325 0 7 cbr 500 ------- 0 0.0 8.0 65 65
- 1.325 0 7 cbr 500 ------- 0 0.0 8.0 65 65
r 1.328 7 8 cbr 500 ------- 0 0.0 8.0 60 60
r 1.329 0 7 cbr 500 ------- 0 0.0 8.0 63 63
+ 1.329 7 8 cbr 500 ------- 0 0.0 8.0 63 63
- 1.329 7 8 cbr 500 ------- 0 0.0 8.0 63 63
+ 1.33 0 7 cbr 500 ------- 0 0.0 8.0 66 66
- 1.33 0 7 cbr 500 ------- 0 0.0 8.0 66 66
r 1.333 7 8 cbr 500 ------- 0 0.0 8.0 61 61
r 1.334 0 7 cbr 500 ------- 0 0.0 8.0 64 64
+ 1.334 7 8 cbr 500 ------- 0 0.0 8.0 64 64
- 1.334 7 8 cbr 500 ------- 0 0.0 8.0 64 64
+ 1.335 0 7 cbr 500 ------- 0 0.0 8.0 67 67
- 1.335 0 7 cbr 500 ------- 0 0.0 8.0 67 67
r 1.338 7 8 cbr 500 ------- 0 0.0 8.0 62 62
r 1.339 0 7 cbr 500 ------- 0 0.0 8.0 65 65
+ 1.339 7 8 cbr 500 ------- 0 0.0 8.0 65 65
- 1.339 7 8 cbr 500 ------- 0 0.0 8.0 65 65
+ 1.34 0 7 cbr 500 ------- 0 0.0 8.0 68 68
- 1.34 0 7 cbr 500 ------- 0 0.0 8.0 68 68
r 1.343 7 8 cbr 500 ------- 0 0.0 8.0 63 63
r 1.344 0 7 cbr 500 ------- 0 0.0 8.0 66 66
+ 1.344 7 8 cbr 500 ------- 0 0.0 8.0 66 66
- 1.344 7 8 cbr 500 ------- 0 0.0 8.0 66 66
+ 1.345 0 7 cbr 500 ------- 0 0.0 8.0 69 69
- 1.345 0 7 cbr 500 ------- 0 0.0 8.0 69 69
r 1.348 7 8 cbr 500 ------- 0 0.0 8.0 64 64
r 1.349 0 7 cbr 500 ------- 0 0.0 8.0 67 67
+ 1.349 7 8 cbr 500 ------- 0 0.0 8.0 67 67
- 1.349 7 8 cbr 500 ------- 0 0.0 8.0 67 67
+ 1.35 0 7 cbr 500 ------- 0 0.0 8.0 70 70
- 1.35 0 7 cbr 500 ------- 0 0.0 8.0 70 70
r 1.353 7 8 cbr 500 ------- 0 0.0 8.0 65 65
r 1.354 0 7 cbr 500 ------- 0 0.0 8.0 68 68
+ 1.354 7 8 cbr 500 ------- 0 0.0 8.0 68 68
- 1.354 7 8 cbr 500 ------- 0 0.0 8.0 68 68
+ 1.355 0 7 cbr 500 ------- 0 0.0 8.0 71 71
- 1.355 0 7 cbr 500 ------- 0 0.0 8.0 71 71
r 1.358 7 8 cbr 500 ------- 0 0.0 8.0 66 66
r 1.359 0 7 cbr 500 ------- 0 0.0 8.0 69 69
+ 1.359 7 8 cbr 500 ------- 0 0.0 8.0 69 69
- 1.359 7 8 cbr 500 ------- 0 0.0 8.0 69 69
+ 1.36 0 7 cbr 500 ------- 0 0.0 8.0 72 72
- 1.36 0 7 cbr 500 ------- 0 0.0 8.0 72 72
r 1.363 7 8 cbr 500 ------- 0 0.0 8.0 67 67
r 1.364 0 7 cbr 500 ------- 0 0.0 8.0 70 70
+ 1.364 7 8 cbr 500 ------- 0 0.0 8.0 70 70
- 1.364 7 8 cbr 500 ------- 0 0.0 8.0 70 70
+ 1.365 0 7 cbr 500 ------- 0 0.0 8.0 73 73
- 1.365 0 7 cbr 500 ------- 0 0.0 8.0 73 73
r 1.368 7 8 cbr 500 ------- 0 0.0 8.0 68 68
r 1.369 0 7 cbr 500 ------- 0 0.0 8.0 71 71
+ 1.369 7 8 cbr 500 ------- 0 0.0 8.0 71 71
- 1.369 7 8 cbr 500 ------- 0 0.0 8.0 71 71
+ 1.37 0 7 cbr 500 ------- 0 0.0 8.0 74 74
- 1.37 0 7 cbr 500 ------- 0 0.0 8.0 74 74
r 1.373 7 8 cbr 500 ------- 0 0.0 8.0 69 69
r 1.374 0 7 cbr 500 ------- 0 0.0 8.0 72 72
+ 1.374 7 8 cbr 500 ------- 0 0.0 8.0 72 72
- 1.374 7 8 cbr 500 ------- 0 0.0 8.0 72 72
+ 1.375 0 7 cbr 500 ------- 0 0.0 8.0 75 75
- 1.375 0 7 cbr 500 ------- 0 0.0 8.0 75 75
r 1.378 7 8 cbr 500 ------- 0 0.0 8.0 70 70
r 1.379 0 7 cbr 500 ------- 0 0.0 8.0 73 73
+ 1.379 7 8 cbr 500 ------- 0 0.0 8.0 73 73
- 1.379 7 8 cbr 500 ------- 0 0.0 8.0 73 73
+ 1.38 0 7 cbr 500 ------- 0 0.0 8.0 76 76
- 1.38 0 7 cbr 500 ------- 0 0.0 8.0 76 76
r 1.383 7 8 cbr 500 ------- 0 0.0 8.0 71 71
r 1.384 0 7 cbr 500 ------- 0 0.0 8.0 74 74
+ 1.384 7 8 cbr 500 ------- 0 0.0 8.0 74 74
- 1.384 7 8 cbr 500 ------- 0 0.0 8.0 74 74
+ 1.385 0 7 cbr 500 ------- 0 0.0 8.0 77 77
- 1.385 0 7 cbr 500 ------- 0 0.0 8.0 77 77
r 1.388 7 8 cbr 500 ------- 0 0.0 8.0 72 72
r 1.389 0 7 cbr 500 ------- 0 0.0 8.0 75 75
+ 1.389 7 8 cbr 500 ------- 0 0.0 8.0 75 75
- 1.389 7 8 cbr 500 ------- 0 0.0 8.0 75 75
+ 1.39 0 7 cbr 500 ------- 0 0.0 8.0 78 78
- 1.39 0 7 cbr 500 ------- 0 0.0 8.0 78 78
r 1.393 7 8 cbr 500 ------- 0 0.0 8.0 73 73
r 1.394 0 7 cbr 500 ------- 0 0.0 8.0 76 76
+ 1.394 7 8 cbr 500 ------- 0 0.0 8.0 76 76
- 1.394 7 8 cbr 500 ------- 0 0.0 8.0 76 76
+ 1.395 0 7 cbr 500 ------- 0 0.0 8.0 79 79
- 1.395 0 7 cbr 500 ------- 0 0.0 8.0 79 79
r 1.398 7 8 cbr 500 ------- 0 0.0 8.0 74 74
r 1.399 0 7 cbr 500 ------- 0 0.0 8.0 77 77
+ 1.399 7 8 cbr 500 ------- 0 0.0 8.0 77 77
- 1.399 7 8 cbr 500 ------- 0 0.0 8.0 77 77
+ 1.4 0 7 cbr 500 ------- 0 0.0 8.0 80 80
- 1.4 0 7 cbr 500 ------- 0 0.0 8.0 80 80
r 1.403 7 8 cbr 500 ------- 0 0.0 8.0 75 75
r 1.404 0 7 cbr 500 ------- 0 0.0 8.0 78 78
+ 1.404 7 8 cbr 500 ------- 0 0.0 8.0 78 78
- 1.404 7 8 cbr 500 ------- 0 0.0 8.0 78 78
+ 1.405 0 7 cbr 500 ------- 0 0.0 8.0 81 81
- 1.405 0 7 cbr 500 ------- 0 0.0 8.0 81 81
r 1.408 7 8 cbr 500 ------- 0 0.0 8.0 76 76
r 1.409 0 7 cbr 500 ------- 0 0.0 8.0 79 79
+ 1.409 7 8 cbr 500 ------- 0 0.0 8.0 79 79
- 1.409 7 8 cbr 500 ------- 0 0.0 8.0 79 79
+ 1.41 0 7 cbr 500 ------- 0 0.0 8.0 82 82
- 1.41 0 7 cbr 500 ------- 0 0.0 8.0 82 82
r 1.413 7 8 cbr 500 ------- 0 0.0 8.0 77 77
r 1.414 0 7 cbr 500 ------- 0 0.0 8.0 80 80
+ 1.414 7 8 cbr 500 ------- 0 0.0 8.0 80 80
- 1.414 7 8 cbr 500 ------- 0 0.0 8.0 80 80
+ 1.415 0 7 cbr 500 ------- 0 0.0 8.0 83 83
- 1.415 0 7 cbr 500 ------- 0 0.0 8.0 83 83
r 1.418 7 8 cbr 500 ------- 0 0.0 8.0 78 78
r 1.419 0 7 cbr 500 ------- 0 0.0 8.0 81 81
+ 1.419 7 8 cbr 500 ------- 0 0.0 8.0 81 81
- 1.419 7 8 cbr 500 ------- 0 0.0 8.0 81 81
+ 1.42 0 7 cbr 500 ------- 0 0.0 8.0 84 84
- 1.42 0 7 cbr 500 ------- 0 0.0 8.0 84 84
r 1.423 7 8 cbr 500 ------- 0 0.0 8.0 79 79
r 1.424 0 7 cbr 500 ------- 0 0.0 8.0 82 82
+ 1.424 7 8 cbr 500 ------- 0 0.0 8.0 82 82
- 1.424 7 8 cbr 500 ------- 0 0.0 8.0 82 82
+ 1.425 0 7 cbr 500 ------- 0 0.0 8.0 85 85
- 1.425 0 7 cbr 500 ------- 0 0.0 8.0 85 85
r 1.428 7 8 cbr 500 ------- 0 0.0 8.0 80 80
r 1.429 0 7 cbr 500 ------- 0 0.0 8.0 83 83
+ 1.429 7 8 cbr 500 ------- 0 0.0 8.0 83 83
- 1.429 7 8 cbr 500 ------- 0 0.0 8.0 83 83
+ 1.43 0 7 cbr 500 ------- 0 0.0 8.0 86 86
- 1.43 0 7 cbr 500 ------- 0 0.0 8.0 86 86
r 1.433 7 8 cbr 500 ------- 0 0.0 8.0 81 81
r 1.434 0 7 cbr 500 ------- 0 0.0 8.0 84 84
+ 1.434 7 8 cbr 500 ------- 0 0.0 8.0 84 84
- 1.434 7 8 cbr 500 ------- 0 0.0 8.0 84 84
+ 1.435 0 7 cbr 500 ------- 0 0.0 8.0 87 87
- 1.435 0 7 cbr 500 ------- 0 0.0 8.0 87 87
r 1.438 7 8 cbr 500 ------- 0 0.0 8.0 82 82
r 1.439 0 7 cbr 500 ------- 0 0.0 8.0 85 85
+ 1.439 7 8 cbr 500 ------- 0 0.0 8.0 85 85
- 1.439 7 8 cbr 500 ------- 0 0.0 8.0 85 85
+ 1.44 0 7 cbr 500 ------- 0 0.0 8.0 88 88
- 1.44 0 7 cbr 500 ------- 0 0.0 8.0 88 88
r 1.443 7 8 cbr 500 ------- 0 0.0 8.0 83 83
r 1.444 0 7 cbr 500 ------- 0 0.0 8.0 86 86
+ 1.444 7 8 cbr 500 ------- 0 0.0 8.0 86 86
- 1.444 7 8 cbr 500 ------- 0 0.0 8.0 86 86
+ 1.445 0 7 cbr 500 ------- 0 0.0 8.0 89 89
- 1.445 0 7 cbr 500 ------- 0 0.0 8.0 89 89
r 1.448 7 8 cbr 500 ------- 0 0.0 8.0 84 84
r 1.449 0 7 cbr 500 ------- 0 0.0 8.0 87 87
+ 1.449 7 8 cbr 500 ------- 0 0.0 8.0 87 87
- 1.449 7 8 cbr 500 ------- 0 0.0 8.0 87 87
+ 1.45 0 7 cbr 500 ------- 0 0.0 8.0 90 90
- 1.45 0 7 cbr 500 ------- 0 0.0 8.0 90 90
r 1.453 7 8 cbr 500 ------- 0 0.0 8.0 85 85
r 1.454 0 7 cbr 500 ------- 0 0.0 8.0 88 88
+ 1.454 7 8 cbr 500 ------- 0 0.0 8.0 88 88
- 1.454 7 8 cbr 500 ------- 0 0.0 8.0 88 88
+ 1.455 0 7 cbr 500 ------- 0 0.0 8.0 91 91
- 1.455 0 7 cbr 500 ------- 0 0.0 8.0 91 91
r 1.458 7 8 cbr 500 ------- 0 0.0 8.0 86 86
r 1.459 0 7 cbr 500 ------- 0 0.0 8.0 89 89
+ 1.459 7 8 cbr 500 ------- 0 0.0 8.0 89 89
- 1.459 7 8 cbr 500 ------- 0 0.0 8.0 89 89
+ 1.46 0 7 cbr 500 ------- 0 0.0 8.0 92 92
- 1.46 0 7 cbr 500 ------- 0 0.0 8.0 92 92
r 1.463 7 8 cbr 500 ------- 0 0.0 8.0 87 87
r 1.464 0 7 cbr 500 ------- 0 0.0 8.0 90 90
+ 1.464 7 8 cbr 500 ------- 0 0.0 8.0 90 90
- 1.464 7 8 cbr 500 ------- 0 0.0 8.0 90 90
+ 1.465 0 7 cbr 500 ------- 0 0.0 8.0 93 93
- 1.465 0 7 cbr 500 ------- 0 0.0 8.0 93 93
r 1.468 7 8 cbr 500 ------- 0 0.0 8.0 88 88
r 1.469 0 7 cbr 500 ------- 0 0.0 8.0 91 91
+ 1.469 7 8 cbr 500 ------- 0 0.0 8.0 91 91
- 1.469 7 8 cbr 500 ------- 0 0.0 8.0 91 91
+ 1.47 0 7 cbr 500 ------- 0 0.0 8.0 94 94
- 1.47 0 7 cbr 500 ------- 0 0.0 8.0 94 94
r 1.473 7 8 cbr 500 ------- 0 0.0 8.0 89 89
r 1.474 0 7 cbr 500 ------- 0 0.0 8.0 92 92
+ 1.474 7 8 cbr 500 ------- 0 0.0 8.0 92 92
- 1.474 7 8 cbr 500 ------- 0 0.0 8.0 92 92
+ 1.475 0 7 cbr 500 ------- 0 0.0 8.0 95 95
- 1.475 0 7 cbr 500 ------- 0 0.0 8.0 95 95
r 1.478 7 8 cbr 500 ------- 0 0.0 8.0 90 90
r 1.479 0 7 cbr 500 ------- 0 0.0 8.0 93 93
+ 1.479 7 8 cbr 500 ------- 0 0.0 8.0 93 93
- 1.479 7 8 cbr 500 ------- 0 0.0 8.0 93 93
+ 1.48 0 7 cbr 500 ------- 0 0.0 8.0 96 96
- 1.48 0 7 cbr 500 ------- 0 0.0 8.0 96 96
r 1.483 7 8 cbr 500 ------- 0 0.0 8.0 91 91
r 1.484 0 7 cbr 500 ------- 0 0.0 8.0 94 94
+ 1.484 7 8 cbr 500 ------- 0 0.0 8.0 94 94
- 1.484 7 8 cbr 500 ------- 0 0.0 8.0 94 94
+ 1.485 0 7 cbr 500 ------- 0 0.0 8.0 97 97
- 1.485 0 7 cbr 500 ------- 0 0.0 8.0 97 97
r 1.488 7 8 cbr 500 ------- 0 0.0 8.0 92 92
r 1.489 0 7 cbr 500 ------- 0 0.0 8.0 95 95
+ 1.489 7 8 cbr 500 ------- 0 0.0 8.0 95 95
- 1.489 7 8 cbr 500 ------- 0 0.0 8.0 95 95
+ 1.49 0 7 cbr 500 ------- 0 0.0 8.0 98 98
- 1.49 0 7 cbr 500 ------- 0 0.0 8.0 98 98
r 1.493 7 8 cbr 500 ------- 0 0.0 8.0 93 93
r 1.494 0 7 cbr 500 ------- 0 0.0 8.0 96 96
+ 1.494 7 8 cbr 500 ------- 0 0.0 8.0 96 96
- 1.494 7 8 cbr 500 ------- 0 0.0 8.0 96 96
+ 1.495 0 7 cbr 500 ------- 0 0.0 8.0 99 99
- 1.495 0 7 cbr 500 ------- 0 0.0 8.0 99 99
r 1.498 7 8 cbr 500 ------- 0 0.0 8.0 94 94
r 1.499 0 7 cbr 500 ------- 0 0.0 8.0 97 97
+ 1.499 7 8 cbr 500 ------- 0 0.0 8.0 97 97
- 1.499 7 8 cbr 500 ------- 0 0.0 8.0 97 97
+ 1.5 0 7 cbr 500 ------- 0 0.0 8.0 100 100
- 1.5 0 7 cbr 500 ------- 0 0.0 8.0 100 100
r 1.503 7 8 cbr 500 ------- 0 0.0 8.0 95 95
r 1.504 0 7 cbr 500 ------- 0 0.0 8.0 98 98
+ 1.504 7 8 cbr 500 ------- 0 0.0 8.0 98 98
- 1.504 7 8 cbr 500 ------- 0 0.0 8.0 98 98
+ 1.505 0 7 cbr 500 ------- 0 0.0 8.0 101 101
- 1.505 0 7 cbr 500 ------- 0 0.0 8.0 101 101
r 1.508 7 8 cbr 500 ------- 0 0.0 8.0 96 96
r 1.509 0 7 cbr 500 ------- 0 0.0 8.0 99 99
+ 1.509 7 8 cbr 500 ------- 0 0.0 8.0 99 99
- 1.509 7 8 cbr 500 ------- 0 0.0 8.0 99 99
+ 1.51 0 7 cbr 500 ------- 0 0.0 8.0 102 102
- 1.51 0 7 cbr 500 ------- 0 0.0 8.0 102 102
r 1.513 7 8 cbr 500 ------- 0 0.0 8.0 97 97
r 1.514 0 7 cbr 500 ------- 0 0.0 8.0 100 100
+ 1.514 7 8 cbr 500 ------- 0 0.0 8.0 100 100
- 1.514 7 8 cbr 500 ------- 0 0.0 8.0 100 100
+ 1.515 0 7 cbr 500 ------- 0 0.0 8.0 103 103
- 1.515 0 7 cbr 500 ------- 0 0.0 8.0 103 103
r 1.518 7 8 cbr 500 ------- 0 0.0 8.0 98 98
r 1.519 0 7 cbr 500 ------- 0 0.0 8.0 101 101
+ 1.519 7 8 cbr 500 ------- 0 0.0 8.0 101 101
- 1.519 7 8 cbr 500 ------- 0 0.0 8.0 101 101
+ 1.52 0 7 cbr 500 ------- 0 0.0 8.0 104 104
- 1.52 0 7 cbr 500 ------- 0 0.0 8.0 104 104
r 1.523 7 8 cbr 500 ------- 0 0.0 8.0 99 99
r 1.524 0 7 cbr 500 ------- 0 0.0 8.0 102 102
+ 1.524 7 8 cbr 500 ------- 0 0.0 8.0 102 102
- 1.524 7 8 cbr 500 ------- 0 0.0 8.0 102 102
+ 1.525 0 7 cbr 500 ------- 0 0.0 8.0 105 105
- 1.525 0 7 cbr 500 ------- 0 0.0 8.0 105 105
r 1.528 7 8 cbr 500 ------- 0 0.0 8.0 100 100
r 1.529 0 7 cbr 500 ------- 0 0.0 8.0 103 103
+ 1.529 7 8 cbr 500 ------- 0 0.0 8.0 103 103
- 1.529 7 8 cbr 500 ------- 0 0.0 8.0 103 103
+ 1.53 0 7 cbr 500 ------- 0 0.0 8.0 106 106
- 1.53 0 7 cbr 500 ------- 0 0.0 8.0 106 106
r 1.533 7 8 cbr 500 ------- 0 0.0 8.0 101 101
r 1.534 0 7 cbr 500 ------- 0 0.0 8.0 104 104
+ 1.534 7 8 cbr 500 ------- 0 0.0 8.0 104 104
- 1.534 7 8 cbr 500 ------- 0 0.0 8.0 104 104
+ 1.535 0 7 cbr 500 ------- 0 0.0 8.0 107 107
- 1.535 0 7 cbr 500 ------- 0 0.0 8.0 107 107
r 1.538 7 8 cbr 500 ------- 0 0.0 8.0 102 102
r 1.539 0 7 cbr 500 ------- 0 0.0 8.0 105 105
+ 1.539 7 8 cbr 500 ------- 0 0.0 8.0 105 105
- 1.539 7 8 cbr 500 ------- 0 0.0 8.0 105 105
+ 1.54 0 7 cbr 500 ------- 0 0.0 8.0 108 108
- 1.54 0 7 cbr 500 ------- 0 0.0 8.0 108 108
r 1.543 7 8 cbr 500 ------- 0 0.0 8.0 103 103
r 1.544 0 7 cbr 500 ------- 0 0.0 8.0 106 106
+ 1.544 7 8 cbr 500 ------- 0 0.0 8.0 106 106
- 1.544 7 8 cbr 500 ------- 0 0.0 8.0 106 106
+ 1.545 0 7 cbr 500 ------- 0 0.0 8.0 109 109
- 1.545 0 7 cbr 500 ------- 0 0.0 8.0 109 109
r 1.548 7 8 cbr 500 ------- 0 0.0 8.0 104 104
r 1.549 0 7 cbr 500 ------- 0 0.0 8.0 107 107
+ 1.549 7 8 cbr 500 ------- 0 0.0 8.0 107 107
- 1.549 7 8 cbr 500 ------- 0 0.0 8.0 107 107
+ 1.55 0 7 cbr 500 ------- 0 0.0 8.0 110 110
- 1.55 0 7 cbr 500 ------- 0 0.0 8.0 110 110
r 1.553 7 8 cbr 500 ------- 0 0.0 8.0 105 105
r 1.554 0 7 cbr 500 ------- 0 0.0 8.0 108 108
+ 1.554 7 8 cbr 500 ------- 0 0.0 8.0 108 108
- 1.554 7 8 cbr 500 ------- 0 0.0 8.0 108 108
+ 1.555 0 7 cbr 500 ------- 0 0.0 8.0 111 111
- 1.555 0 7 cbr 500 ------- 0 0.0 8.0 111 111
r 1.558 7 8 cbr 500 ------- 0 0.0 8.0 106 106
r 1.559 0 7 cbr 500 ------- 0 0.0 8.0 109 109
+ 1.559 7 8 cbr 500 ------- 0 0.0 8.0 109 109
- 1.559 7 8 cbr 500 ------- 0 0.0 8.0 109 109
+ 1.56 0 7 cbr 500 ------- 0 0.0 8.0 112 112
- 1.56 0 7 cbr 500 ------- 0 0.0 8.0 112 112
r 1.563 7 8 cbr 500 ------- 0 0.0 8.0 107 107
r 1.564 0 7 cbr 500 ------- 0 0.0 8.0 110 110
+ 1.564 7 8 cbr 500 ------- 0 0.0 8.0 110 110
- 1.564 7 8 cbr 500 ------- 0 0.0 8.0 110 110
+ 1.565 0 7 cbr 500 ------- 0 0.0 8.0 113 113
- 1.565 0 7 cbr 500 ------- 0 0.0 8.0 113 113
r 1.568 7 8 cbr 500 ------- 0 0.0 8.0 108 108
r 1.569 0 7 cbr 500 ------- 0 0.0 8.0 111 111
+ 1.569 7 8 cbr 500 ------- 0 0.0 8.0 111 111
- 1.569 7 8 cbr 500 ------- 0 0.0 8.0 111 111
+ 1.57 0 7 cbr 500 ------- 0 0.0 8.0 114 114
- 1.57 0 7 cbr 500 ------- 0 0.0 8.0 114 114
r 1.573 7 8 cbr 500 ------- 0 0.0 8.0 109 109
r 1.574 0 7 cbr 500 ------- 0 0.0 8.0 112 112
+ 1.574 7 8 cbr 500 ------- 0 0.0 8.0 112 112
- 1.574 7 8 cbr 500 ------- 0 0.0 8.0 112 112
+ 1.575 0 7 cbr 500 ------- 0 0.0 8.0 115 115
- 1.575 0 7 cbr 500 ------- 0 0.0 8.0 115 115
r 1.578 7 8 cbr 500 ------- 0 0.0 8.0 110 110
r 1.579 0 7 cbr 500 ------- 0 0.0 8.0 113 113