+ 40 4 7 cbr 210 ------- 0 4.0 7.0 0 11015
- 40 4 7 cbr 210 ------- 0 4.0 7.0 0 11015
+ 40.00112 4 7 cbr 210 ------- 0 4.0 7.0 1 11016
- 40.00168 4 7 cbr 210 ------- 0 4.0 7.0 1 11016
+ 40.00224 4 7 cbr 210 ------- 0 4.0 7.0 2 11017
- 40.00336 4 7 cbr 210 ------- 0 4.0 7.0 2 11017
+ 40.00336 4 7 cbr 210 ------- 0 4.0 7.0 3 11018
+ 40.00448 4 7 cbr 210 ------- 0 4.0 7.0 4 11019
- 40.00504 4 7 cbr 210 ------- 0 4.0 7.0 3 11018
+ 40.0056 4 7 cbr 210 ------- 0 4.0 7.0 5 11020
- 40.00672 4 7 cbr 210 ------- 0 4.0 7.0 4 11019
+ 40.00672 4 7 cbr 210 ------- 0 4.0 7.0 6 11021
+ 40.00784 4 7 cbr 210 ------- 0 4.0 7.0 7 11022
- 40.0084 4 7 cbr 210 ------- 0 4.0 7.0 5 11020
+ 40.00896 4 7 cbr 210 ------- 0 4.0 7.0 8 11023
- 40.01008 4 7 cbr 210 ------- 0 4.0 7.0 6 11021
+ 40.01008 4 7 cbr 210 ------- 0 4.0 7.0 9 11024
+ 40.0112 4 7 cbr 210 ------- 0 4.0 7.0 10 11025
r 40.01168 4 7 cbr 210 ------- 0 4.0 7.0 0 11015
- 40.01176 4 7 cbr 210 ------- 0 4.0 7.0 7 11022
+ 40.01232 4 7 cbr 210 ------- 0 4.0 7.0 11 11026
r 40.01336 4 7 cbr 210 ------- 0 4.0 7.0 1 11016
- 40.01344 4 7 cbr 210 ------- 0 4.0 7.0 8 11023
+ 40.01344 4 7 cbr 210 ------- 0 4.0 7.0 12 11027
+ 40.01456 4 7 cbr 210 ------- 0 4.0 7.0 13 11028
r 40.01504 4 7 cbr 210 ------- 0 4.0 7.0 2 11017
- 40.01512 4 7 cbr 210 ------- 0 4.0 7.0 9 11024
+ 40.01568 4 7 cbr 210 ------- 0 4.0 7.0 14 11029
r 40.01672 4 7 cbr 210 ------- 0 4.0 7.0 3 11018
- 40.0168 4 7 cbr 210 ------- 0 4.0 7.0 10 11025
+ 40.0168 4 7 cbr 210 ------- 0 4.0 7.0 15 11030
+ 40.01792 4 7 cbr 210 ------- 0 4.0 7.0 16 11031
r 40.0184 4 7 cbr 210 ------- 0 4.0 7.0 4 11019
- 40.01848 4 7 cbr 210 ------- 0 4.0 7.0 11 11026
+ 40.01904 4 7 cbr 210 ------- 0 4.0 7.0 17 11032
r 40.02008 4 7 cbr 210 ------- 0 4.0 7.0 5 11020
- 40.02016 4 7 cbr 210 ------- 0 4.0 7.0 12 11027
+ 40.02016 4 7 cbr 210 ------- 0 4.0 7.0 18 11033
+ 40.02128 4 7 cbr 210 ------- 0 4.0 7.0 19 11034
r 40.02176 4 7 cbr 210 ------- 0 4.0 7.0 6 11021
- 40.02184 4 7 cbr 210 ------- 0 4.0 7.0 13 11028
+ 40.0224 4 7 cbr 210 ------- 0 4.0 7.0 20 11035
r 40.02344 4 7 cbr 210 ------- 0 4.0 7.0 7 11022
- 40.02352 4 7 cbr 210 ------- 0 4.0 7.0 14 11029
+ 40.02352 4 7 cbr 210 ------- 0 4.0 7.0 21 11036
+ 40.02464 4 7 cbr 210 ------- 0 4.0 7.0 22 11037
r 40.02512 4 7 cbr 210 ------- 0 4.0 7.0 8 11023
- 40.0252 4 7 cbr 210 ------- 0 4.0 7.0 15 11030
+ 40.02576 4 7 cbr 210 ------- 0 4.0 7.0 23 11038
r 40.0268 4 7 cbr 210 ------- 0 4.0 7.0 9 11024
- 40.02688 4 7 cbr 210 ------- 0 4.0 7.0 16 11031
+ 40.02688 4 7 cbr 210 ------- 0 4.0 7.0 24 11039
+ 40.028 4 7 cbr 210 ------- 0 4.0 7.0 25 11040
r 40.02848 4 7 cbr 210 ------- 0 4.0 7.0 10 11025
- 40.02856 4 7 cbr 210 ------- 0 4.0 7.0 17 11032
+ 40.02912 4 7 cbr 210 ------- 0 4.0 7.0 26 11041
r 40.03016 4 7 cbr 210 ------- 0 4.0 7.0 11 11026
- 40.03024 4 7 cbr 210 ------- 0 4.0 7.0 18 11033
+ 40.03024 4 7 cbr 210 ------- 0 4.0 7.0 27 11042
+ 40.03136 4 7 cbr 210 ------- 0 4.0 7.0 28 11043
r 40.03184 4 7 cbr 210 ------- 0 4.0 7.0 12 11027
- 40.03192 4 7 cbr 210 ------- 0 4.0 7.0 19 11034
+ 40.03248 4 7 cbr 210 ------- 0 4.0 7.0 29 11044
r 40.03352 4 7 cbr 210 ------- 0 4.0 7.0 13 11028
- 40.0336 4 7 cbr 210 ------- 0 4.0 7.0 20 11035
+ 40.0336 4 7 cbr 210 ------- 0 4.0 7.0 30 11045
+ 40.03472 4 7 cbr 210 ------- 0 4.0 7.0 31 11046
r 40.0352 4 7 cbr 210 ------- 0 4.0 7.0 14 11029
- 40.03528 4 7 cbr 210 ------- 0 4.0 7.0 21 11036
+ 40.03584 4 7 cbr 210 ------- 0 4.0 7.0 32 11047
r 40.03688 4 7 cbr 210 ------- 0 4.0 7.0 15 11030
- 40.03696 4 7 cbr 210 ------- 0 4.0 7.0 22 11037
+ 40.03696 4 7 cbr 210 ------- 0 4.0 7.0 33 11048
+ 40.03808 4 7 cbr 210 ------- 0 4.0 7.0 34 11049
r 40.03856 4 7 cbr 210 ------- 0 4.0 7.0 16 11031
- 40.03864 4 7 cbr 210 ------- 0 4.0 7.0 23 11038
+ 40.0392 4 7 cbr 210 ------- 0 4.0 7.0 35 11050
r 40.04024 4 7 cbr 210 ------- 0 4.0 7.0 17 11032
- 40.04032 4 7 cbr 210 ------- 0 4.0 7.0 24 11039
+ 40.04032 4 7 cbr 210 ------- 0 4.0 7.0 36 11051
+ 40.04144 4 7 cbr 210 ------- 0 4.0 7.0 37 11052
r 40.04192 4 7 cbr 210 ------- 0 4.0 7.0 18 11033
- 40.042 4 7 cbr 210 ------- 0 4.0 7.0 25 11040
+ 40.04256 4 7 cbr 210 ------- 0 4.0 7.0 38 11053
r 40.0436 4 7 cbr 210 ------- 0 4.0 7.0 19 11034
- 40.04368 4 7 cbr 210 ------- 0 4.0 7.0 26 11041
+ 40.04368 4 7 cbr 210 ------- 0 4.0 7.0 39 11054
+ 40.0448 4 7 cbr 210 ------- 0 4.0 7.0 40 11055
r 40.04528 4 7 cbr 210 ------- 0 4.0 7.0 20 11035
- 40.04536 4 7 cbr 210 ------- 0 4.0 7.0 27 11042
+ 40.04592 4 7 cbr 210 ------- 0 4.0 7.0 41 11056
r 40.04696 4 7 cbr 210 ------- 0 4.0 7.0 21 11036
- 40.04704 4 7 cbr 210 ------- 0 4.0 7.0 28 11043
+ 40.04704 4 7 cbr 210 ------- 0 4.0 7.0 42 11057
+ 40.04816 4 7 cbr 210 ------- 0 4.0 7.0 43 11058
r 40.04864 4 7 cbr 210 ------- 0 4.0 7.0 22 11037
- 40.04872 4 7 cbr 210 ------- 0 4.0 7.0 29 11044
+ 40.04928 4 7 cbr 210 ------- 0 4.0 7.0 44 11059
r 40.05032 4 7 cbr 210 ------- 0 4.0 7.0 23 11038
- 40.0504 4 7 cbr 210 ------- 0 4.0 7.0 30 11045
+ 40.0504 4 7 cbr 210 ------- 0 4.0 7.0 45 11060
+ 40.05152 4 7 cbr 210 ------- 0 4.0 7.0 46 11061
r 40.052 4 7 cbr 210 ------- 0 4.0 7.0 24 11039
- 40.05208 4 7 cbr 210 ------- 0 4.0 7.0 31 11046
+ 40.05264 4 7 cbr 210 ------- 0 4.0 7.0 47 11062
r 40.05368 4 7 cbr 210 ------- 0 4.0 7.0 25 11040
- 40.05376 4 7 cbr 210 ------- 0 4.0 7.0 32 11047
+ 40.05376 4 7 cbr 210 ------- 0 4.0 7.0 48 11063
+ 40.05488 4 7 cbr 210 ------- 0 4.0 7.0 49 11064
r 40.05536 4 7 cbr 210 ------- 0 4.0 7.0 26 11041
- 40.05544 4 7 cbr 210 ------- 0 4.0 7.0 33 11048
+ 40.056 4 7 cbr 210 ------- 0 4.0 7.0 50 11065
r 40.05704 4 7 cbr 210 ------- 0 4.0 7.0 27 11042
- 40.05712 4 7 cbr 210 ------- 0 4.0 7.0 34 11049
+ 40.05712 4 7 cbr 210 ------- 0 4.0 7.0 51 11066
+ 40.05824 4 7 cbr 210 ------- 0 4.0 7.0 52 11067
r 40.05872 4 7 cbr 210 ------- 0 4.0 7.0 28 11043
- 40.0588 4 7 cbr 210 ------- 0 4.0 7.0 35 11050
+ 40.05936 4 7 cbr 210 ------- 0 4.0 7.0 53 11068
r 40.0604 4 7 cbr 210 ------- 0 4.0 7.0 29 11044
- 40.06048 4 7 cbr 210 ------- 0 4.0 7.0 36 11051
+ 40.06048 4 7 cbr 210 ------- 0 4.0 7.0 54 11069
+ 40.0616 4 7 cbr 210 ------- 0 4.0 7.0 55 11070
r 40.06208 4 7 cbr 210 ------- 0 4.0 7.0 30 11045
- 40.06216 4 7 cbr 210 ------- 0 4.0 7.0 37 11052
+ 40.06272 4 7 cbr 210 ------- 0 4.0 7.0 56 11071
r 40.06376 4 7 cbr 210 ------- 0 4.0 7.0 31 11046
- 40.06384 4 7 cbr 210 ------- 0 4.0 7.0 38 11053
+ 40.06384 4 7 cbr 210 ------- 0 4.0 7.0 57 11072
+ 40.06496 4 7 cbr 210 ------- 0 4.0 7.0 58 11073
r 40.06544 4 7 cbr 210 ------- 0 4.0 7.0 32 11047
- 40.06552 4 7 cbr 210 ------- 0 4.0 7.0 39 11054
+ 40.06608 4 7 cbr 210 ------- 0 4.0 7.0 59 11074
r 40.06712 4 7 cbr 210 ------- 0 4.0 7.0 33 11048
- 40.0672 4 7 cbr 210 ------- 0 4.0 7.0 40 11055
+ 40.0672 4 7 cbr 210 ------- 0 4.0 7.0 60 11075
+ 40.06832 4 7 cbr 210 ------- 0 4.0 7.0 61 11076
r 40.0688 4 7 cbr 210 ------- 0 4.0 7.0 34 11049
- 40.06888 4 7 cbr 210 ------- 0 4.0 7.0 41 11056
+ 40.06944 4 7 cbr 210 ------- 0 4.0 7.0 62 11077
r 40.07048 4 7 cbr 210 ------- 0 4.0 7.0 35 11050
- 40.07056 4 7 cbr 210 ------- 0 4.0 7.0 42 11057
+ 40.07056 4 7 cbr 210 ------- 0 4.0 7.0 63 11078
+ 40.07168 4 7 cbr 210 ------- 0 4.0 7.0 64 11079
r 40.07216 4 7 cbr 210 ------- 0 4.0 7.0 36 11051
- 40.07224 4 7 cbr 210 ------- 0 4.0 7.0 43 11058
+ 40.0728 4 7 cbr 210 ------- 0 4.0 7.0 65 11080
r 40.07384 4 7 cbr 210 ------- 0 4.0 7.0 37 11052
- 40.07392 4 7 cbr 210 ------- 0 4.0 7.0 44 11059
+ 40.07392 4 7 cbr 210 ------- 0 4.0 7.0 66 11081
+ 40.07504 4 7 cbr 210 ------- 0 4.0 7.0 67 11082
r 40.07552 4 7 cbr 210 ------- 0 4.0 7.0 38 11053
- 40.0756 4 7 cbr 210 ------- 0 4.0 7.0 45 11060
+ 40.07616 4 7 cbr 210 ------- 0 4.0 7.0 68 11083
r 40.0772 4 7 cbr 210 ------- 0 4.0 7.0 39 11054
- 40.07728 4 7 cbr 210 ------- 0 4.0 7.0 46 11061
+ 40.07728 4 7 cbr 210 ------- 0 4.0 7.0 69 11084
+ 40.0784 4 7 cbr 210 ------- 0 4.0 7.0 70 11085
r 40.07888 4 7 cbr 210 ------- 0 4.0 7.0 40 11055
- 40.07896 4 7 cbr 210 ------- 0 4.0 7.0 47 11062
+ 40.07952 4 7 cbr 210 ------- 0 4.0 7.0 71 11086
r 40.08056 4 7 cbr 210 ------- 0 4.0 7.0 41 11056
- 40.08064 4 7 cbr 210 ------- 0 4.0 7.0 48 11063
+ 40.08064 4 7 cbr 210 ------- 0 4.0 7.0 72 11087
+ 40.08176 4 7 cbr 210 ------- 0 4.0 7.0 73 11088
r 40.08224 4 7 cbr 210 ------- 0 4.0 7.0 42 11057
- 40.08232 4 7 cbr 210 ------- 0 4.0 7.0 49 11064
+ 40.08288 4 7 cbr 210 ------- 0 4.0 7.0 74 11089
r 40.08392 4 7 cbr 210 ------- 0 4.0 7.0 43 11058
- 40.084 4 7 cbr 210 ------- 0 4.0 7.0 50 11065
+ 40.084 4 7 cbr 210 ------- 0 4.0 7.0 75 11090
+ 40.08512 4 7 cbr 210 ------- 0 4.0 7.0 76 11091
r 40.0856 4 7 cbr 210 ------- 0 4.0 7.0 44 11059
- 40.08568 4 7 cbr 210 ------- 0 4.0 7.0 51 11066
+ 40.08624 4 7 cbr 210 ------- 0 4.0 7.0 77 11092
r 40.08728 4 7 cbr 210 ------- 0 4.0 7.0 45 11060
- 40.08736 4 7 cbr 210 ------- 0 4.0 7.0 52 11067
+ 40.08736 4 7 cbr 210 ------- 0 4.0 7.0 78 11093
+ 40.08848 4 7 cbr 210 ------- 0 4.0 7.0 79 11094
r 40.08896 4 7 cbr 210 ------- 0 4.0 7.0 46 11061
- 40.08904 4 7 cbr 210 ------- 0 4.0 7.0 53 11068
+ 40.0896 4 7 cbr 210 ------- 0 4.0 7.0 80 11095
r 40.09064 4 7 cbr 210 ------- 0 4.0 7.0 47 11062
- 40.09072 4 7 cbr 210 ------- 0 4.0 7.0 54 11069
+ 40.09072 4 7 cbr 210 ------- 0 4.0 7.0 81 11096
+ 40.09184 4 7 cbr 210 ------- 0 4.0 7.0 82 11097
r 40.09232 4 7 cbr 210 ------- 0 4.0 7.0 48 11063
- 40.0924 4 7 cbr 210 ------- 0 4.0 7.0 55 11070
+ 40.09296 4 7 cbr 210 ------- 0 4.0 7.0 83 11098
r 40.094 4 7 cbr 210 ------- 0 4.0 7.0 49 11064
- 40.09408 4 7 cbr 210 ------- 0 4.0 7.0 56 11071
+ 40.09408 4 7 cbr 210 ------- 0 4.0 7.0 84 11099
+ 40.0952 4 7 cbr 210 ------- 0 4.0 7.0 85 11100
r 40.09568 4 7 cbr 210 ------- 0 4.0 7.0 50 11065
- 40.09576 4 7 cbr 210 ------- 0 4.0 7.0 57 11072
+ 40.09632 4 7 cbr 210 ------- 0 4.0 7.0 86 11101
r 40.09736 4 7 cbr 210 ------- 0 4.0 7.0 51 11066
- 40.09744 4 7 cbr 210 ------- 0 4.0 7.0 58 11073
+ 40.09744 4 7 cbr 210 ------- 0 4.0 7.0 87 11102
+ 40.09856 4 7 cbr 210 ------- 0 4.0 7.0 88 11103
r 40.09904 4 7 cbr 210 ------- 0 4.0 7.0 52 11067
- 40.09912 4 7 cbr 210 ------- 0 4.0 7.0 59 11074
+ 40.09968 4 7 cbr 210 ------- 0 4.0 7.0 89 11104
r 40.10072 4 7 cbr 210 ------- 0 4.0 7.0 53 11068
- 40.1008 4 7 cbr 210 ------- 0 4.0 7.0 60 11075
+ 40.1008 4 7 cbr 210 ------- 0 4.0 7.0 90 11105
+ 40.10192 4 7 cbr 210 ------- 0 4.0 7.0 91 11106
r 40.1024 4 7 cbr 210 ------- 0 4.0 7.0 54 11069
- 40.10248 4 7 cbr 210 ------- 0 4.0 7.0 61 11076
+ 40.10304 4 7 cbr 210 ------- 0 4.0 7.0 92 11107
r 40.10408 4 7 cbr 210 ------- 0 4.0 7.0 55 11070
- 40.10416 4 7 cbr 210 ------- 0 4.0 7.0 62 11077
+ 40.10416 4 7 cbr 210 ------- 0 4.0 7.0 93 11108
+ 40.10528 4 7 cbr 210 ------- 0 4.0 7.0 94 11109
r 40.10576 4 7 cbr 210 ------- 0 4.0 7.0 56 11071
- 40.10584 4 7 cbr 210 ------- 0 4.0 7.0 63 11078
+ 40.1064 4 7 cbr 210 ------- 0 4.0 7.0 95 11110
r 40.10744 4 7 cbr 210 ------- 0 4.0 7.0 57 11072
- 40.10752 4 7 cbr 210 ------- 0 4.0 7.0 64 11079
+ 40.10752 4 7 cbr 210 ------- 0 4.0 7.0 96 11111
+ 40.10864 4 7 cbr 210 ------- 0 4.0 7.0 97 11112
r 40.10912 4 7 cbr 210 ------- 0 4.0 7.0 58 11073
- 40.1092 4 7 cbr 210 ------- 0 4.0 7.0 65 11080
+ 40.10976 4 7 cbr 210 ------- 0 4.0 7.0 98 11113
r 40.1108 4 7 cbr 210 ------- 0 4.0 7.0 59 11074
- 40.11088 4 7 cbr 210 ------- 0 4.0 7.0 66 11081
+ 40.11088 4 7 cbr 210 ------- 0 4.0 7.0 99 11114
+ 40.112 4 7 cbr 210 ------- 0 4.0 7.0 100 11115
r 40.11248 4 7 cbr 210 ------- 0 4.0 7.0 60 11075
- 40.11256 4 7 cbr 210 ------- 0 4.0 7.0 67 11082
+ 40.11312 4 7 cbr 210 ------- 0 4.0 7.0 101 11116
r 40.11416 4 7 cbr 210 ------- 0 4.0 7.0 61 11076
- 40.11424 4 7 cbr 210 ------- 0 4.0 7.0 68 11083
+ 40.11424 4 7 cbr 210 ------- 0 4.0 7.0 102 11117
+ 40.11536 4 7 cbr 210 ------- 0 4.0 7.0 103 11118
r 40.11584 4 7 cbr 210 ------- 0 4.0 7.0 62 11077
- 40.11592 4 7 cbr 210 ------- 0 4.0 7.0 69 11084
+ 40.11648 4 7 cbr 210 ------- 0 4.0 7.0 104 11119
r 40.11752 4 7 cbr 210 ------- 0 4.0 7.0 63 11078
- 40.1176 4 7 cbr 210 ------- 0 4.0 7.0 70 11085
+ 40.1176 4 7 cbr 210 ------- 0 4.0 7.0 105 11120
+ 40.11872 4 7 cbr 210 ------- 0 4.0 7.0 106 11121
r 40.1192 4 7 cbr 210 ------- 0 4.0 7.0 64 11079
- 40.11928 4 7 cbr 210 ------- 0 4.0 7.0 71 11086
+ 40.11984 4 7 cbr 210 ------- 0 4.0 7.0 107 11122
r 40.12088 4 7 cbr 210 ------- 0 4.0 7.0 65 11080
- 40.12096 4 7 cbr 210 ------- 0 4.0 7.0 72 11087
+ 40.12096 4 7 cbr 210 ------- 0 4.0 7.0 108 11123
+ 40.12208 4 7 cbr 210 ------- 0 4.0 7.0 109 11124
r 40.12256 4 7 cbr 210 ------- 0 4.0 7.0 66 11081
- 40.12264 4 7 cbr 210 ------- 0 4.0 7.0 73 11088
+ 40.1232 4 7 cbr 210 ------- 0 4.0 7.0 110 11125
r 40.12424 4 7 cbr 210 ------- 0 4.0 7.0 67 11082
- 40.12432 4 7 cbr 210 ------- 0 4.0 7.0 74 11089
+ 40.12432 4 7 cbr 210 ------- 0 4.0 7.0 111 11126
+ 40.12544 4 7 cbr 210 ------- 0 4.0 7.0 112 11127
r 40.12592 4 7 cbr 210 ------- 0 4.0 7.0 68 11083
- 40.126 4 7 cbr 210 ------- 0 4.0 7.0 75 11090
+ 40.12656 4 7 cbr 210 ------- 0 4.0 7.0 113 11128
r 40.1276 4 7 cbr 210 ------- 0 4.0 7.0 69 11084
- 40.12768 4 7 cbr 210 ------- 0 4.0 7.0 76 11091
+ 40.12768 4 7 cbr 210 ------- 0 4.0 7.0 114 11129
+ 40.1288 4 7 cbr 210 ------- 0 4.0 7.0 115 11130
r 40.12928 4 7 cbr 210 ------- 0 4.0 7.0 70 11085
- 40.12936 4 7 cbr 210 ------- 0 4.0 7.0 77 11092
+ 40.12992 4 7 cbr 210 ------- 0 4.0 7.0 116 11131
r 40.13096 4 7 cbr 210 ------- 0 4.0 7.0 71 11086
- 40.13104 4 7 cbr 210 ------- 0 4.0 7.0 78 11093
+ 40.13104 4 7 cbr 210 ------- 0 4.0 7.0 117 11132
+ 40.13216 4 7 cbr 210 ------- 0 4.0 7.0 118 11133
r 40.13264 4 7 cbr 210 ------- 0 4.0 7.0 72 11087
- 40.13272 4 7 cbr 210 ------- 0 4.0 7.0 79 11094
+ 40.13328 4 7 cbr 210 ------- 0 4.0 7.0 119 11134
r 40.13432 4 7 cbr 210 ------- 0 4.0 7.0 73 11088
- 40.1344 4 7 cbr 210 ------- 0 4.0 7.0 80 11095
+ 40.1344 4 7 cbr 210 ------- 0 4.0 7.0 120 11135
+ 40.13552 4 7 cbr 210 ------- 0 4.0 7.0 121 11136
r 40.136 4 7 cbr 210 ------- 0 4.0 7.0 74 11089
- 40.13608 4 7 cbr 210 ------- 0 4.0 7.0 81 11096
+ 40.13664 4 7 cbr 210 ------- 0 4.0 7.0 122 11137
r 40.13768 4 7 cbr 210 ------- 0 4.0 7.0 75 11090
- 40.13776 4 7 cbr 210 ------- 0 4.0 7.0 82 11097
+ 40.13776 4 7 cbr 210 ------- 0 4.0 7.0 123 11138
+ 40.13888 4 7 cbr 210 ------- 0 4.0 7.0 124 11139
r 40.13936 4 7 cbr 210 ------- 0 4.0 7.0 76 11091
- 40.13944 4 7 cbr 210 ------- 0 4.0 7.0 83 11098
+ 40.14 4 7 cbr 210 ------- 0 4.0 7.0 125 11140
r 40.14104 4 7 cbr 210 ------- 0 4.0 7.0 77 11092
- 40.14112 4 7 cbr 210 ------- 0 4.0 7.0 84 11099
+ 40.14112 4 7 cbr 210 ------- 0 4.0 7.0 126 11141
+ 40.14224 4 7 cbr 210 ------- 0 4.0 7.0 127 11142
r 40.14272 4 7 cbr 210 ------- 0 4.0 7.0 78 11093
- 40.1428 4 7 cbr 210 ------- 0 4.0 7.0 85 11100
+ 40.14336 4 7 cbr 210 ------- 0 4.0 7.0 128 11143
r 40.1444 4 7 cbr 210 ------- 0 4.0 7.0 79 11094
- 40.14448 4 7 cbr 210 ------- 0 4.0 7.0 86 11101
+ 40.14448 4 7 cbr 210 ------- 0 4.0 7.0 129 11144
+ 40.1456 4 7 cbr 210 ------- 0 4.0 7.0 130 11145
r 40.14608 4 7 cbr 210 ------- 0 4.0 7.0 80 11095
- 40.14616 4 7 cbr 210 ------- 0 4.0 7.0 87 11102
+ 40.14672 4 7 cbr 210 ------- 0 4.0 7.0 131 11146
r 40.14776 4 7 cbr 210 ------- 0 4.0 7.0 81 11096
- 40.14784 4 7 cbr 210 ------- 0 4.0 7.0 88 11103
+ 40.14784 4 7 cbr 210 ------- 0 4.0 7.0 132 11147
+ 40.14896 4 7 cbr 210 ------- 0 4.0 7.0 133 11148
r 40.14944 4 7 cbr 210 ------- 0 4.0 7.0 82 11097
- 40.14952 4 7 cbr 210 ------- 0 4.0 7.0 89 11104
+ 40.15008 4 7 cbr 210 ------- 0 4.0 7.0 134 11149
r 40.15112 4 7 cbr 210 ------- 0 4.0 7.0 83 11098
- 40.1512 4 7 cbr 210 ------- 0 4.0 7.0 90 11105
+ 40.1512 4 7 cbr 210 ------- 0 4.0 7.0 135 11150
+ 40.15232 4 7 cbr 210 ------- 0 4.0 7.0 136 11151
r 40.1528 4 7 cbr 210 ------- 0 4.0 7.0 84 11099
- 40.15288 4 7 cbr 210 ------- 0 4.0 7.0 91 11106
+ 40.15344 4 7 cbr 210 ------- 0 4.0 7.0 137 11152
r 40.15448 4 7 cbr 210 ------- 0 4.0 7.0 85 11100
- 40.15456 4 7 cbr 210 ------- 0 4.0 7.0 92 11107
+ 40.15456 4 7 cbr 210 ------- 0 4.0 7.0 138 11153
+ 40.15568 4 7 cbr 210 ------- 0 4.0 7.0 139 11154
r 40.15616 4 7 cbr 210 ------- 0 4.0 7.0 86 11101
- 40.15624 4 7 cbr 210 ------- 0 4.0 7.0 93 11108
+ 40.1568 4 7 cbr 210 ------- 0 4.0 7.0 140 11155
r 40.15784 4 7 cbr 210 ------- 0 4.0 7.0 87 11102
- 40.15792 4 7 cbr 210 ------- 0 4.0 7.0 94 11109
+ 40.15792 4 7 cbr 210 ------- 0 4.0 7.0 141 11156
+ 40.15904 4 7 cbr 210 ------- 0 4.0 7.0 142 11157
r 40.15952 4 7 cbr 210 ------- 0 4.0 7.0 88 11103
- 40.1596 4 7 cbr 210 ------- 0 4.0 7.0 95 11110
+ 40.16016 4 7 cbr 210 ------- 0 4.0 7.0 143 11158
r 40.1612 4 7 cbr 210 ------- 0 4.0 7.0 89 11104
- 40.16128 4 7 cbr 210 ------- 0 4.0 7.0 96 11111
+ 40.16128 4 7 cbr 210 ------- 0 4.0 7.0 144 11159
+ 40.1624 4 7 cbr 210 ------- 0 4.0 7.0 145 11160
r 40.16288 4 7 cbr 210 ------- 0 4.0 7.0 90 11105
- 40.16296 4 7 cbr 210 ------- 0 4.0 7.0 97 11112
+ 40.16352 4 7 cbr 210 ------- 0 4.0 7.0 146 11161
r 40.16456 4 7 cbr 210 ------- 0 4.0 7.0 91 11106
- 40.16464 4 7 cbr 210 ------- 0 4.0 7.0 98 11113
+ 40.16464 4 7 cbr 210 ------- 0 4.0 7.0 147 11162
+ 40.16576 4 7 cbr 210 ------- 0 4.0 7.0 148 11163
d 40.16576 4 7 cbr 210 ------- 0 4.0 7.0 148 11163
r 40.16624 4 7 cbr 210 ------- 0 4.0 7.0 92 11107
- 40.16632 4 7 cbr 210 ------- 0 4.0 7.0 99 11114
+ 40.16688 4 7 cbr 210 ------- 0 4.0 7.0 149 11164
r 40.16792 4 7 cbr 210 ------- 0 4.0 7.0 93 11108
- 40.168 4 7 cbr 210 ------- 0 4.0 7.0 100 11115
+ 40.168 4 7 cbr 210 ------- 0 4.0 7.0 150 11165
+ 40.16912 4 7 cbr 210 ------- 0 4.0 7.0 151 11166
d 40.16912 4 7 cbr 210 ------- 0 4.0 7.0 151 11166
r 40.1696 4 7 cbr 210 ------- 0 4.0 7.0 94 11109
- 40.16968 4 7 cbr 210 ------- 0 4.0 7.0 101 11116
+ 40.17024 4 7 cbr 210 ------- 0 4.0 7.0 152 11167
r 40.17128 4 7 cbr 210 ------- 0 4.0 7.0 95 11110
- 40.17136 4 7 cbr 210 ------- 0 4.0 7.0 102 11117
+ 40.17136 4 7 cbr 210 ------- 0 4.0 7.0 153 11168
+ 40.17248 4 7 cbr 210 ------- 0 4.0 7.0 154 11169
d 40.17248 4 7 cbr 210 ------- 0 4.0 7.0 154 11169
r 40.17296 4 7 cbr 210 ------- 0 4.0 7.0 96 11111
- 40.17304 4 7 cbr 210 ------- 0 4.0 7.0 103 11118
+ 40.1736 4 7 cbr 210 ------- 0 4.0 7.0 155 11170
r 40.17464 4 7 cbr 210 ------- 0 4.0 7.0 97 11112
- 40.17472 4 7 cbr 210 ------- 0 4.0 7.0 104 11119
+ 40.17472 4 7 cbr 210 ------- 0 4.0 7.0 156 11171
+ 40.17584 4 7 cbr 210 ------- 0 4.0 7.0 157 11172
d 40.17584 4 7 cbr 210 ------- 0 4.0 7.0 157 11172
r 40.17632 4 7 cbr 210 ------- 0 4.0 7.0 98 11113
- 40.1764 4 7 cbr 210 ------- 0 4.0 7.0 105 11120
+ 40.17696 4 7 cbr 210 ------- 0 4.0 7.0 158 11173
r 40.178 4 7 cbr 210 ------- 0 4.0 7.0 99 11114
- 40.17808 4 7 cbr 210 ------- 0 4.0 7.0 106 11121
+ 40.17808 4 7 cbr 210 ------- 0 4.0 7.0 159 11174
+ 40.1792 4 7 cbr 210 ------- 0 4.0 7.0 160 11175
d 40.1792 4 7 cbr 210 ------- 0 4.0 7.0 160 11175
r 40.17968 4 7 cbr 210 ------- 0 4.0 7.0 100 11115
- 40.17976 4 7 cbr 210 ------- 0 4.0 7.0 107 11122
+ 40.18032 4 7 cbr 210 ------- 0 4.0 7.0 161 11176
r 40.18136 4 7 cbr 210 ------- 0 4.0 7.0 101 11116
- 40.18144 4 7 cbr 210 ------- 0 4.0 7.0 108 11123
+ 40.18144 4 7 cbr 210 ------- 0 4.0 7.0 162 11177
+ 40.18256 4 7 cbr 210 ------- 0 4.0 7.0 163 11178
d 40.18256 4 7 cbr 210 ------- 0 4.0 7.0 163 11178
r 40.18304 4 7 cbr 210 ------- 0 4.0 7.0 102 11117
- 40.18312 4 7 cbr 210 ------- 0 4.0 7.0 109 11124
+ 40.18368 4 7 cbr 210 ------- 0 4.0 7.0 164 11179
r 40.18472 4 7 cbr 210 ------- 0 4.0 7.0 103 11118
- 40.1848 4 7 cbr 210 ------- 0 4.0 7.0 110 11125
+ 40.1848 4 7 cbr 210 ------- 0 4.0 7.0 165 11180
+ 40.18592 4 7 cbr 210 ------- 0 4.0 7.0 166 11181
d 40.18592 4 7 cbr 210 ------- 0 4.0 7.0 166 11181
r 40.1864 4 7 cbr 210 ------- 0 4.0 7.0 104 11119
- 40.18648 4 7 cbr 210 ------- 0 4.0 7.0 111 11126
+ 40.18704 4 7 cbr 210 ------- 0 4.0 7.0 167 11182
r 40.18808 4 7 cbr 210 ------- 0 4.0 7.0 105 11120
- 40.18816 4 7 cbr 210 ------- 0 4.0 7.0 112 11127
+ 40.18816 4 7 cbr 210 ------- 0 4.0 7.0 168 11183
+ 40.18928 4 7 cbr 210 ------- 0 4.0 7.0 169 11184
d 40.18928 4 7 cbr 210 ------- 0 4.0 7.0 169 11184
r 40.18976 4 7 cbr 210 ------- 0 4.0 7.0 106 11121
- 40.18984 4 7 cbr 210 ------- 0 4.0 7.0 113 11128
+ 40.1904 4 7 cbr 210 ------- 0 4.0 7.0 170 11185
r 40.19144 4 7 cbr 210 ------- 0 4.0 7.0 107 11122
- 40.19152 4 7 cbr 210 ------- 0 4.0 7.0 114 11129
+ 40.19152 4 7 cbr 210 ------- 0 4.0 7.0 171 11186
+ 40.19264 4 7 cbr 210 ------- 0 4.0 7.0 172 11187
d 40.19264 4 7 cbr 210 ------- 0 4.0 7.0 172 11187
r 40.19312 4 7 cbr 210 ------- 0 4.0 7.0 108 11123
- 40.1932 4 7 cbr 210 ------- 0 4.0 7.0 115 11130
+ 40.19376 4 7 cbr 210 ------- 0 4.0 7.0 173 11188
r 40.1948 4 7 cbr 210 ------- 0 4.0 7.0 109 11124
- 40.19488 4 7 cbr 210 ------- 0 4.0 7.0 116 11131
+ 40.19488 4 7 cbr 210 ------- 0 4.0 7.0 174 11189
+ 40.196 4 7 cbr 210 ------- 0 4.0 7.0 175 11190
d 40.196 4 7 cbr 210 ------- 0 4.0 7.0 175 11190
r 40.19648 4 7 cbr 210 ------- 0 4.0 7.0 110 11125
- 40.19656 4 7 cbr 210 ------- 0 4.0 7.0 117 11132
+ 40.19712 4 7 cbr 210 ------- 0 4.0 7.0 176 11191
r 40.19816 4 7 cbr 210 ------- 0 4.0 7.0 111 11126
- 40.19824 4 7 cbr 210 ------- 0 4.0 7.0 118 11133
+ 40.19824 4 7 cbr 210 ------- 0 4.0 7.0 177 11192
+ 40.19936 4 7 cbr 210 ------- 0 4.0 7.0 178 11193
d 40.19936 4 7 cbr 210 ------- 0 4.0 7.0 178 11193
r 40.19984 4 7 cbr 210 ------- 0 4.0 7.0 112 11127
- 40.19992 4 7 cbr 210 ------- 0 4.0 7.0 119 11134
+ 40.20048 4 7 cbr 210 ------- 0 4.0 7.0 179 11194
r 40.20152 4 7 cbr 210 ------- 0 4.0 7.0 113 11128
- 40.2016 4 7 cbr 210 ------- 0 4.0 7.0 120 11135
+ 40.2016 4 7 cbr 210 ------- 0 4.0 7.0 180 11195
+ 40.20272 4 7 cbr 210 ------- 0 4.0 7.0 181 11196
d 40.20272 4 7 cbr 210 ------- 0 4.0 7.0 181 11196
r 40.2032 4 7 cbr 210 ------- 0 4.0 7.0 114 11129
- 40.20328 4 7 cbr 210 ------- 0 4.0 7.0 121 11136
+ 40.20384 4 7 cbr 210 ------- 0 4.0 7.0 182 11197
r 40.20488 4 7 cbr 210 ------- 0 4.0 7.0 115 11130
- 40.20496 4 7 cbr 210 ------- 0 4.0 7.0 122 11137
+ 40.20496 4 7 cbr 210 ------- 0 4.0 7.0 183 11198
+ 40.20608 4 7 cbr 210 ------- 0 4.0 7.0 184 11199
d 40.20608 4 7 cbr 210 ------- 0 4.0 7.0 184 11199
r 40.20656 4 7 cbr 210 ------- 0 4.0 7.0 116 11131
- 40.20664 4 7 cbr 210 ------- 0 4.0 7.0 123 11138
+ 40.2072 4 7 cbr 210 ------- 0 4.0 7.0 185 11200
r 40.20824 4 7 cbr 210 ------- 0 4.0 7.0 117 11132
- 40.20832 4 7 cbr 210 ------- 0 4.0 7.0 124 11139
+ 40.20832 4 7 cbr 210 ------- 0 4.0 7.0 186 11201
+ 40.20944 4 7 cbr 210 ------- 0 4.0 7.0 187 11202
d 40.20944 4 7 cbr 210 ------- 0 4.0 7.0 187 11202
r 40.20992 4 7 cbr 210 ------- 0 4.0 7.0 118 11133
- 40.21 4 7 cbr 210 ------- 0 4.0 7.0 125 11140
+ 40.21056 4 7 cbr 210 ------- 0 4.0 7.0 188 11203
r 40.2116 4 7 cbr 210 ------- 0 4.0 7.0 119 11134
- 40.21168 4 7 cbr 210 ------- 0 4.0 7.0 126 11141
+ 40.21168 4 7 cbr 210 ------- 0 4.0 7.0 189 11204
+ 40.2128 4 7 cbr 210 ------- 0 4.0 7.0 190 11205
d 40.2128 4 7 cbr 210 ------- 0 4.0 7.0 190 11205
r 40.21328 4 7 cbr 210 ------- 0 4.0 7.0 120 11135
- 40.21336 4 7 cbr 210 ------- 0 4.0 7.0 127 11142
+ 40.21392 4 7 cbr 210 ------- 0 4.0 7.0 191 11206
r 40.21496 4 7 cbr 210 ------- 0 4.0 7.0 121 11136
- 40.21504 4 7 cbr 210 ------- 0 4.0 7.0 128 11143
+ 40.21504 4 7 cbr 210 ------- 0 4.0 7.0 192 11207
+ 40.21616 4 7 cbr 210 ------- 0 4.0 7.0 193 11208
d 40.21616 4 7 cbr 210 ------- 0 4.0 7.0 193 11208
r 40.21664 4 7 cbr 210 ------- 0 4.0 7.0 122 11137
- 40.21672 4 7 cbr 210 ------- 0 4.0 7.0 129 11144
+ 40.21728 4 7 cbr 210 ------- 0 4.0 7.0 194 11209
r 40.21832 4 7 cbr 210 ------- 0 4.0 7.0 123 11138
- 40.2184 4 7 cbr 210 ------- 0 4.0 7.0 130 11145
+ 40.2184 4 7 cbr 210 ------- 0 4.0 7.0 195 11210
+ 40.21952 4 7 cbr 210 ------- 0 4.0 7.0 196 11211
d 40.21952 4 7 cbr 210 ------- 0 4.0 7.0 196 11211
r 40.22 4 7 cbr 210 ------- 0 4.0 7.0 124 11139
- 40.22008 4 7 cbr 210 ------- 0 4.0 7.0 131 11146
+ 40.22064 4 7 cbr 210 ------- 0 4.0 7.0 197 11212
r 40.22168 4 7 cbr 210 ------- 0 4.0 7.0 125 11140
- 40.22176 4 7 cbr 210 ------- 0 4.0 7.0 132 11147
+ 40.22176 4 7 cbr 210 ------- 0 4.0 7.0 198 11213
+ 40.22288 4 7 cbr 210 ------- 0 4.0 7.0 199 11214
d 40.22288 4 7 cbr 210 ------- 0 4.0 7.0 199 11214
r 40.22336 4 7 cbr 210 ------- 0 4.0 7.0 126 11141
- 40.22344 4 7 cbr 210 ------- 0 4.0 7.0 133 11148
+ 40.224 4 7 cbr 210 ------- 0 4.0 7.0 200 11215
r 40.22504 4 7 cbr 210 ------- 0 4.0 7.0 127 11142
- 40.22512 4 7 cbr 210 ------- 0 4.0 7.0 134 11149
+ 40.22512 4 7 cbr 210 ------- 0 4.0 7.0 201 11216
+ 40.22624 4 7 cbr 210 ------- 0 4.0 7.0 202 11217
d 40.22624 4 7 cbr 210 ------- 0 4.0 7.0 202 11217
r 40.22672 4 7 cbr 210 ------- 0 4.0 7.0 128 11143
- 40.2268 4 7 cbr 210 ------- 0 4.0 7.0 135 11150
+ 40.22736 4 7 cbr 210 ------- 0 4.0 7.0 203 11218
r 40.2284 4 7 cbr 210 ------- 0 4.0 7.0 129 11144
- 40.22848 4 7 cbr 210 ------- 0 4.0 7.0 136 11151
+ 40.22848 4 7 cbr 210 ------- 0 4.0 7.0 204 11219
+ 40.2296 4 7 cbr 210 ------- 0 4.0 7.0 205 11220
d 40.2296 4 7 cbr 210 ------- 0 4.0 7.0 205 11220
r 40.23008 4 7 cbr 210 ------- 0 4.0 7.0 130 11145
- 40.23016 4 7 cbr 210 ------- 0 4.0 7.0 137 11152
+ 40.23072 4 7 cbr 210 ------- 0 4.0 7.0 206 11221
r 40.23176 4 7 cbr 210 ------- 0 4.0 7.0 131 11146
- 40.23184 4 7 cbr 210 ------- 0 4.0 7.0 138 11153
+ 40.23184 4 7 cbr 210 ------- 0 4.0 7.0 207 11222
+ 40.23296 4 7 cbr 210 ------- 0 4.0 7.0 208 11223
d 40.23296 4 7 cbr 210 ------- 0 4.0 7.0 208 11223
r 40.23344 4 7 cbr 210 ------- 0 4.0 7.0 132 11147
- 40.23352 4 7 cbr 210 ------- 0 4.0 7.0 139 11154
+ 40.23408 4 7 cbr 210 ------- 0 4.0 7.0 209 11224
r 40.23512 4 7 cbr 210 ------- 0 4.0 7.0 133 11148
- 40.2352 4 7 cbr 210 ------- 0 4.0 7.0 140 11155
+ 40.2352 4 7 cbr 210 ------- 0 4.0 7.0 210 11225
+ 40.23632 4 7 cbr 210 ------- 0 4.0 7.0 211 11226
d 40.23632 4 7 cbr 210 ------- 0 4.0 7.0 211 11226
r 40.2368 4 7 cbr 210 ------- 0 4.0 7.0 134 11149
- 40.23688 4 7 cbr 210 ------- 0 4.0 7.0 141 11156
+ 40.23744 4 7 cbr 210 ------- 0 4.0 7.0 212 11227
r 40.23848 4 7 cbr 210 ------- 0 4.0 7.0 135 11150
- 40.23856 4 7 cbr 210 ------- 0 4.0 7.0 142 11157
+ 40.23856 4 7 cbr 210 ------- 0 4.0 7.0 213 11228
+ 40.23968 4 7 cbr 210 ------- 0 4.0 7.0 214 11229
d 40.23968 4 7 cbr 210 ------- 0 4.0 7.0 214 11229
r 40.24016 4 7 cbr 210 ------- 0 4.0 7.0 136 11151
- 40.24024 4 7 cbr 210 ------- 0 4.0 7.0 143 11158
+ 40.2408 4 7 cbr 210 ------- 0 4.0 7.0 215 11230
r 40.24184 4 7 cbr 210 ------- 0 4.0 7.0 137 11152
- 40.24192 4 7 cbr 210 ------- 0 4.0 7.0 144 11159
+ 40.24192 4 7 cbr 210 ------- 0 4.0 7.0 216 11231
+ 40.24304 4 7 cbr 210 ------- 0 4.0 7.0 217 11232
d 40.24304 4 7 cbr 210 ------- 0 4.0 7.0 217 11232
r 40.24352 4 7 cbr 210 ------- 0 4.0 7.0 138 11153
- 40.2436 4 7 cbr 210 ------- 0 4.0 7.0 145 11160
+ 40.24416 4 7 cbr 210 ------- 0 4.0 7.0 218 11233
r 40.2452 4 7 cbr 210 ------- 0 4.0 7.0 139 11154
- 40.24528 4 7 cbr 210 ------- 0 4.0 7.0 146 11161
+ 40.24528 4 7 cbr 210 ------- 0 4.0 7.0 219 11234
+ 40.2464 4 7 cbr 210 ------- 0 4.0 7.0 220 11235
d 40.2464 4 7 cbr 210 ------- 0 4.0 7.0 220 11235
r 40.24688 4 7 cbr 210 ------- 0 4.0 7.0 140 11155
- 40.24696 4 7 cbr 210 ------- 0 4.0 7.0 147 11162
+ 40.24752 4 7 cbr 210 ------- 0 4.0 7.0 221 11236
r 40.24856 4 7 cbr 210 ------- 0 4.0 7.0 141 11156
- 40.24864 4 7 cbr 210 ------- 0 4.0 7.0 149 11164
+ 40.24864 4 7 cbr 210 ------- 0 4.0 7.0 222 11237
+ 40.24976 4 7 cbr 210 ------- 0 4.0 7.0 223 11238
d 40.24976 4 7 cbr 210 ------- 0 4.0 7.0 223 11238
r 40.25024 4 7 cbr 210 ------- 0 4.0 7.0 142 11157
- 40.25032 4 7 cbr 210 ------- 0 4.0 7.0 150 11165
+ 40.25088 4 7 cbr 210 ------- 0 4.0 7.0 224 11239
r 40.25192 4 7 cbr 210 ------- 0 4.0 7.0 143 11158
- 40.252 4 7 cbr 210 ------- 0 4.0 7.0 152 11167
+ 40.252 4 7 cbr 210 ------- 0 4.0 7.0 225 11240
+ 40.25312 4 7 cbr 210 ------- 0 4.0 7.0 226 11241
d 40.25312 4 7 cbr 210 ------- 0 4.0 7.0 226 11241
r 40.2536 4 7 cbr 210 ------- 0 4.0 7.0 144 11159
- 40.25368 4 7 cbr 210 ------- 0 4.0 7.0 153 11168
+ 40.25424 4 7 cbr 210 ------- 0 4.0 7.0 227 11242
r 40.25528 4 7 cbr 210 ------- 0 4.0 7.0 145 11160
- 40.25536 4 7 cbr 210 ------- 0 4.0 7.0 155 11170
+ 40.25536 4 7 cbr 210 ------- 0 4.0 7.0 228 11243
+ 40.25648 4 7 cbr 210 ------- 0 4.0 7.0 229 11244
d 40.25648 4 7 cbr 210 ------- 0 4.0 7.0 229 11244
r 40.25696 4 7 cbr 210 ------- 0 4.0 7.0 146 11161
- 40.25704 4 7 cbr 210 ------- 0 4.0 7.0 156 11171
+ 40.2576 4 7 cbr 210 ------- 0 4.0 7.0 230 11245
r 40.25864 4 7 cbr 210 ------- 0 4.0 7.0 147 11162
- 40.25872 4 7 cbr 210 ------- 0 4.0 7.0 158 11173
+ 40.25872 4 7 cbr 210 ------- 0 4.0 7.0 231 11246
+ 40.25984 4 7 cbr 210 ------- 0 4.0 7.0 232 11247
d 40.25984 4 7 cbr 210 ------- 0 4.0 7.0 232 11247
r 40.26032 4 7 cbr 210 ------- 0 4.0 7.0 149 11164
- 40.2604 4 7 cbr 210 ------- 0 4.0 7.0 159 11174
+ 40.26096 4 7 cbr 210 ------- 0 4.0 7.0 233 11248
r 40.262 4 7 cbr 210 ------- 0 4.0 7.0 150 11165
- 40.26208 4 7 cbr 210 ------- 0 4.0 7.0 161 11176
+ 40.26208 4 7 cbr 210 ------- 0 4.0 7.0 234 11249
+ 40.2632 4 7 cbr 210 ------- 0 4.0 7.0 235 11250
d 40.2632 4 7 cbr 210 ------- 0 4.0 7.0 235 11250
r 40.26368 4 7 cbr 210 ------- 0 4.0 7.0 152 11167
- 40.26376 4 7 cbr 210 ------- 0 4.0 7.0 162 11177
+ 40.26432 4 7 cbr 210 ------- 0 4.0 7.0 236 11251
r 40.26536 4 7 cbr 210 ------- 0 4.0 7.0 153 11168
- 40.26544 4 7 cbr 210 ------- 0 4.0 7.0 164 11179
+ 40.26544 4 7 cbr 210 ------- 0 4.0 7.0 237 11252
+ 40.26656 4 7 cbr 210 ------- 0 4.0 7.0 238 11253
d 40.26656 4 7 cbr 210 ------- 0 4.0 7.0 238 11253
r 40.26704 4 7 cbr 210 ------- 0 4.0 7.0 155 11170
- 40.26712 4 7 cbr 210 ------- 0 4.0 7.0 165 11180
+ 40.26768 4 7 cbr 210 ------- 0 4.0 7.0 239 11254
r 40.26872 4 7 cbr 210 ------- 0 4.0 7.0 156 11171
- 40.2688 4 7 cbr 210 ------- 0 4.0 7.0 167 11182
+ 40.2688 4 7 cbr 210 ------- 0 4.0 7.0 240 11255
+ 40.26992 4 7 cbr 210 ------- 0 4.0 7.0 241 11256
d 40.26992 4 7 cbr 210 ------- 0 4.0 7.0 241 11256
r 40.2704 4 7 cbr 210 ------- 0 4.0 7.0 158 11173
- 40.27048 4 7 cbr 210 ------- 0 4.0 7.0 168 11183
+ 40.27104 4 7 cbr 210 ------- 0 4.0 7.0 242 11257
r 40.27208 4 7 cbr 210 ------- 0 4.0 7.0 159 11174
- 40.27216 4 7 cbr 210 ------- 0 4.0 7.0 170 11185
+ 40.27216 4 7 cbr 210 ------- 0 4.0 7.0 243 11258
+ 40.27328 4 7 cbr 210 ------- 0 4.0 7.0 244 11259
d 40.27328 4 7 cbr 210 ------- 0 4.0 7.0 244 11259