+ 10 1 7 cbr 210 ------- 0 1.0 7.0 0 596
- 10 1 7 cbr 210 ------- 0 1.0 7.0 0 596
+ 10.00672 1 7 cbr 210 ------- 0 1.0 7.0 1 597
- 10.00672 1 7 cbr 210 ------- 0 1.0 7.0 1 597
r 10.01168 1 7 cbr 210 ------- 0 1.0 7.0 0 596
+ 10.01344 1 7 cbr 210 ------- 0 1.0 7.0 2 598
- 10.01344 1 7 cbr 210 ------- 0 1.0 7.0 2 598
r 10.0184 1 7 cbr 210 ------- 0 1.0 7.0 1 597
+ 10.02016 1 7 cbr 210 ------- 0 1.0 7.0 3 599
- 10.02016 1 7 cbr 210 ------- 0 1.0 7.0 3 599
r 10.02512 1 7 cbr 210 ------- 0 1.0 7.0 2 598
+ 10.02688 1 7 cbr 210 ------- 0 1.0 7.0 4 600
- 10.02688 1 7 cbr 210 ------- 0 1.0 7.0 4 600
r 10.03184 1 7 cbr 210 ------- 0 1.0 7.0 3 599
+ 10.0336 1 7 cbr 210 ------- 0 1.0 7.0 5 601
- 10.0336 1 7 cbr 210 ------- 0 1.0 7.0 5 601
r 10.03856 1 7 cbr 210 ------- 0 1.0 7.0 4 600
+ 10.04032 1 7 cbr 210 ------- 0 1.0 7.0 6 602
- 10.04032 1 7 cbr 210 ------- 0 1.0 7.0 6 602
r 10.04528 1 7 cbr 210 ------- 0 1.0 7.0 5 601
+ 10.04704 1 7 cbr 210 ------- 0 1.0 7.0 7 603
- 10.04704 1 7 cbr 210 ------- 0 1.0 7.0 7 603
r 10.052 1 7 cbr 210 ------- 0 1.0 7.0 6 602
+ 10.05376 1 7 cbr 210 ------- 0 1.0 7.0 8 604
- 10.05376 1 7 cbr 210 ------- 0 1.0 7.0 8 604
r 10.05872 1 7 cbr 210 ------- 0 1.0 7.0 7 603
+ 10.06048 1 7 cbr 210 ------- 0 1.0 7.0 9 605
- 10.06048 1 7 cbr 210 ------- 0 1.0 7.0 9 605
r 10.06544 1 7 cbr 210 ------- 0 1.0 7.0 8 604
+ 10.0672 1 7 cbr 210 ------- 0 1.0 7.0 10 606
- 10.0672 1 7 cbr 210 ------- 0 1.0 7.0 10 606
r 10.07216 1 7 cbr 210 ------- 0 1.0 7.0 9 605
+ 10.07392 1 7 cbr 210 ------- 0 1.0 7.0 11 607
- 10.07392 1 7 cbr 210 ------- 0 1.0 7.0 11 607
r 10.07888 1 7 cbr 210 ------- 0 1.0 7.0 10 606
+ 10.08064 1 7 cbr 210 ------- 0 1.0 7.0 12 608
- 10.08064 1 7 cbr 210 ------- 0 1.0 7.0 12 608
r 10.0856 1 7 cbr 210 ------- 0 1.0 7.0 11 607
+ 10.08736 1 7 cbr 210 ------- 0 1.0 7.0 13 609
- 10.08736 1 7 cbr 210 ------- 0 1.0 7.0 13 609
r 10.09232 1 7 cbr 210 ------- 0 1.0 7.0 12 608
+ 10.09408 1 7 cbr 210 ------- 0 1.0 7.0 14 610
- 10.09408 1 7 cbr 210 ------- 0 1.0 7.0 14 610
r 10.09904 1 7 cbr 210 ------- 0 1.0 7.0 13 609
+ 10.1008 1 7 cbr 210 ------- 0 1.0 7.0 15 611
- 10.1008 1 7 cbr 210 ------- 0 1.0 7.0 15 611
r 10.10576 1 7 cbr 210 ------- 0 1.0 7.0 14 610
+ 10.10752 1 7 cbr 210 ------- 0 1.0 7.0 16 612
- 10.10752 1 7 cbr 210 ------- 0 1.0 7.0 16 612
r 10.11248 1 7 cbr 210 ------- 0 1.0 7.0 15 611
+ 10.11424 1 7 cbr 210 ------- 0 1.0 7.0 17 613
- 10.11424 1 7 cbr 210 ------- 0 1.0 7.0 17 613
r 10.1192 1 7 cbr 210 ------- 0 1.0 7.0 16 612
+ 10.12096 1 7 cbr 210 ------- 0 1.0 7.0 18 614
- 10.12096 1 7 cbr 210 ------- 0 1.0 7.0 18 614
r 10.12592 1 7 cbr 210 ------- 0 1.0 7.0 17 613
+ 10.12768 1 7 cbr 210 ------- 0 1.0 7.0 19 615
- 10.12768 1 7 cbr 210 ------- 0 1.0 7.0 19 615
r 10.13264 1 7 cbr 210 ------- 0 1.0 7.0 18 614
+ 10.1344 1 7 cbr 210 ------- 0 1.0 7.0 20 616
- 10.1344 1 7 cbr 210 ------- 0 1.0 7.0 20 616
r 10.13936 1 7 cbr 210 ------- 0 1.0 7.0 19 615
+ 10.14112 1 7 cbr 210 ------- 0 1.0 7.0 21 617
- 10.14112 1 7 cbr 210 ------- 0 1.0 7.0 21 617
r 10.14608 1 7 cbr 210 ------- 0 1.0 7.0 20 616
+ 10.14784 1 7 cbr 210 ------- 0 1.0 7.0 22 618
- 10.14784 1 7 cbr 210 ------- 0 1.0 7.0 22 618
r 10.1528 1 7 cbr 210 ------- 0 1.0 7.0 21 617
+ 10.15456 1 7 cbr 210 ------- 0 1.0 7.0 23 619
- 10.15456 1 7 cbr 210 ------- 0 1.0 7.0 23 619
r 10.15952 1 7 cbr 210 ------- 0 1.0 7.0 22 618
+ 10.16128 1 7 cbr 210 ------- 0 1.0 7.0 24 620
- 10.16128 1 7 cbr 210 ------- 0 1.0 7.0 24 620
r 10.16624 1 7 cbr 210 ------- 0 1.0 7.0 23 619
+ 10.168 1 7 cbr 210 ------- 0 1.0 7.0 25 621
- 10.168 1 7 cbr 210 ------- 0 1.0 7.0 25 621
r 10.17296 1 7 cbr 210 ------- 0 1.0 7.0 24 620
+ 10.17472 1 7 cbr 210 ------- 0 1.0 7.0 26 622
- 10.17472 1 7 cbr 210 ------- 0 1.0 7.0 26 622
r 10.17968 1 7 cbr 210 ------- 0 1.0 7.0 25 621
+ 10.18144 1 7 cbr 210 ------- 0 1.0 7.0 27 623
- 10.18144 1 7 cbr 210 ------- 0 1.0 7.0 27 623
r 10.1864 1 7 cbr 210 ------- 0 1.0 7.0 26 622
+ 10.18816 1 7 cbr 210 ------- 0 1.0 7.0 28 624
- 10.18816 1 7 cbr 210 ------- 0 1.0 7.0 28 624
r 10.19312 1 7 cbr 210 ------- 0 1.0 7.0 27 623
+ 10.19488 1 7 cbr 210 ------- 0 1.0 7.0 29 625
- 10.19488 1 7 cbr 210 ------- 0 1.0 7.0 29 625
r 10.19984 1 7 cbr 210 ------- 0 1.0 7.0 28 624
+ 10.2016 1 7 cbr 210 ------- 0 1.0 7.0 30 626
- 10.2016 1 7 cbr 210 ------- 0 1.0 7.0 30 626
r 10.20656 1 7 cbr 210 ------- 0 1.0 7.0 29 625
+ 10.20832 1 7 cbr 210 ------- 0 1.0 7.0 31 627
- 10.20832 1 7 cbr 210 ------- 0 1.0 7.0 31 627
r 10.21328 1 7 cbr 210 ------- 0 1.0 7.0 30 626
+ 10.21504 1 7 cbr 210 ------- 0 1.0 7.0 32 628
- 10.21504 1 7 cbr 210 ------- 0 1.0 7.0 32 628
r 10.22 1 7 cbr 210 ------- 0 1.0 7.0 31 627
+ 10.22176 1 7 cbr 210 ------- 0 1.0 7.0 33 629
- 10.22176 1 7 cbr 210 ------- 0 1.0 7.0 33 629
r 10.22672 1 7 cbr 210 ------- 0 1.0 7.0 32 628
+ 10.22848 1 7 cbr 210 ------- 0 1.0 7.0 34 630
- 10.22848 1 7 cbr 210 ------- 0 1.0 7.0 34 630
r 10.23344 1 7 cbr 210 ------- 0 1.0 7.0 33 629
+ 10.2352 1 7 cbr 210 ------- 0 1.0 7.0 35 631
- 10.2352 1 7 cbr 210 ------- 0 1.0 7.0 35 631
r 10.24016 1 7 cbr 210 ------- 0 1.0 7.0 34 630
+ 10.24192 1 7 cbr 210 ------- 0 1.0 7.0 36 632
- 10.24192 1 7 cbr 210 ------- 0 1.0 7.0 36 632
r 10.24688 1 7 cbr 210 ------- 0 1.0 7.0 35 631
+ 10.24864 1 7 cbr 210 ------- 0 1.0 7.0 37 633
- 10.24864 1 7 cbr 210 ------- 0 1.0 7.0 37 633
r 10.2536 1 7 cbr 210 ------- 0 1.0 7.0 36 632
+ 10.25536 1 7 cbr 210 ------- 0 1.0 7.0 38 634
- 10.25536 1 7 cbr 210 ------- 0 1.0 7.0 38 634
r 10.26032 1 7 cbr 210 ------- 0 1.0 7.0 37 633
+ 10.26208 1 7 cbr 210 ------- 0 1.0 7.0 39 635
- 10.26208 1 7 cbr 210 ------- 0 1.0 7.0 39 635
r 10.26704 1 7 cbr 210 ------- 0 1.0 7.0 38 634
+ 10.2688 1 7 cbr 210 ------- 0 1.0 7.0 40 636
- 10.2688 1 7 cbr 210 ------- 0 1.0 7.0 40 636
r 10.27376 1 7 cbr 210 ------- 0 1.0 7.0 39 635
+ 10.27552 1 7 cbr 210 ------- 0 1.0 7.0 41 637
- 10.27552 1 7 cbr 210 ------- 0 1.0 7.0 41 637
r 10.28048 1 7 cbr 210 ------- 0 1.0 7.0 40 636
+ 10.28224 1 7 cbr 210 ------- 0 1.0 7.0 42 638
- 10.28224 1 7 cbr 210 ------- 0 1.0 7.0 42 638
r 10.2872 1 7 cbr 210 ------- 0 1.0 7.0 41 637
+ 10.28896 1 7 cbr 210 ------- 0 1.0 7.0 43 639
- 10.28896 1 7 cbr 210 ------- 0 1.0 7.0 43 639
r 10.29392 1 7 cbr 210 ------- 0 1.0 7.0 42 638
+ 10.29568 1 7 cbr 210 ------- 0 1.0 7.0 44 640
- 10.29568 1 7 cbr 210 ------- 0 1.0 7.0 44 640
r 10.30064 1 7 cbr 210 ------- 0 1.0 7.0 43 639
+ 10.3024 1 7 cbr 210 ------- 0 1.0 7.0 45 641
- 10.3024 1 7 cbr 210 ------- 0 1.0 7.0 45 641
r 10.30736 1 7 cbr 210 ------- 0 1.0 7.0 44 640
+ 10.30912 1 7 cbr 210 ------- 0 1.0 7.0 46 642
- 10.30912 1 7 cbr 210 ------- 0 1.0 7.0 46 642
r 10.31408 1 7 cbr 210 ------- 0 1.0 7.0 45 641
+ 10.31584 1 7 cbr 210 ------- 0 1.0 7.0 47 643
- 10.31584 1 7 cbr 210 ------- 0 1.0 7.0 47 643
r 10.3208 1 7 cbr 210 ------- 0 1.0 7.0 46 642
+ 10.32256 1 7 cbr 210 ------- 0 1.0 7.0 48 644
- 10.32256 1 7 cbr 210 ------- 0 1.0 7.0 48 644
r 10.32752 1 7 cbr 210 ------- 0 1.0 7.0 47 643
+ 10.32928 1 7 cbr 210 ------- 0 1.0 7.0 49 645
- 10.32928 1 7 cbr 210 ------- 0 1.0 7.0 49 645
r 10.33424 1 7 cbr 210 ------- 0 1.0 7.0 48 644
+ 10.336 1 7 cbr 210 ------- 0 1.0 7.0 50 646
- 10.336 1 7 cbr 210 ------- 0 1.0 7.0 50 646
r 10.34096 1 7 cbr 210 ------- 0 1.0 7.0 49 645
+ 10.34272 1 7 cbr 210 ------- 0 1.0 7.0 51 647
- 10.34272 1 7 cbr 210 ------- 0 1.0 7.0 51 647
r 10.34768 1 7 cbr 210 ------- 0 1.0 7.0 50 646
+ 10.34944 1 7 cbr 210 ------- 0 1.0 7.0 52 648
- 10.34944 1 7 cbr 210 ------- 0 1.0 7.0 52 648
r 10.3544 1 7 cbr 210 ------- 0 1.0 7.0 51 647
+ 10.35616 1 7 cbr 210 ------- 0 1.0 7.0 53 649
- 10.35616 1 7 cbr 210 ------- 0 1.0 7.0 53 649
r 10.36112 1 7 cbr 210 ------- 0 1.0 7.0 52 648
+ 10.36288 1 7 cbr 210 ------- 0 1.0 7.0 54 650
- 10.36288 1 7 cbr 210 ------- 0 1.0 7.0 54 650
r 10.36784 1 7 cbr 210 ------- 0 1.0 7.0 53 649
+ 10.3696 1 7 cbr 210 ------- 0 1.0 7.0 55 651
- 10.3696 1 7 cbr 210 ------- 0 1.0 7.0 55 651
r 10.37456 1 7 cbr 210 ------- 0 1.0 7.0 54 650
+ 10.37632 1 7 cbr 210 ------- 0 1.0 7.0 56 652
- 10.37632 1 7 cbr 210 ------- 0 1.0 7.0 56 652
r 10.38128 1 7 cbr 210 ------- 0 1.0 7.0 55 651
+ 10.38304 1 7 cbr 210 ------- 0 1.0 7.0 57 653
- 10.38304 1 7 cbr 210 ------- 0 1.0 7.0 57 653
r 10.388 1 7 cbr 210 ------- 0 1.0 7.0 56 652
+ 10.38976 1 7 cbr 210 ------- 0 1.0 7.0 58 654
- 10.38976 1 7 cbr 210 ------- 0 1.0 7.0 58 654
r 10.39472 1 7 cbr 210 ------- 0 1.0 7.0 57 653
+ 10.39648 1 7 cbr 210 ------- 0 1.0 7.0 59 655
- 10.39648 1 7 cbr 210 ------- 0 1.0 7.0 59 655
r 10.40144 1 7 cbr 210 ------- 0 1.0 7.0 58 654
+ 10.4032 1 7 cbr 210 ------- 0 1.0 7.0 60 656
- 10.4032 1 7 cbr 210 ------- 0 1.0 7.0 60 656
r 10.40816 1 7 cbr 210 ------- 0 1.0 7.0 59 655
+ 10.40992 1 7 cbr 210 ------- 0 1.0 7.0 61 657
- 10.40992 1 7 cbr 210 ------- 0 1.0 7.0 61 657
r 10.41488 1 7 cbr 210 ------- 0 1.0 7.0 60 656
+ 10.41664 1 7 cbr 210 ------- 0 1.0 7.0 62 658
- 10.41664 1 7 cbr 210 ------- 0 1.0 7.0 62 658
r 10.4216 1 7 cbr 210 ------- 0 1.0 7.0 61 657
+ 10.42336 1 7 cbr 210 ------- 0 1.0 7.0 63 659
- 10.42336 1 7 cbr 210 ------- 0 1.0 7.0 63 659
r 10.42832 1 7 cbr 210 ------- 0 1.0 7.0 62 658
+ 10.43008 1 7 cbr 210 ------- 0 1.0 7.0 64 660
- 10.43008 1 7 cbr 210 ------- 0 1.0 7.0 64 660
r 10.43504 1 7 cbr 210 ------- 0 1.0 7.0 63 659
+ 10.4368 1 7 cbr 210 ------- 0 1.0 7.0 65 661
- 10.4368 1 7 cbr 210 ------- 0 1.0 7.0 65 661
r 10.44176 1 7 cbr 210 ------- 0 1.0 7.0 64 660
+ 10.44352 1 7 cbr 210 ------- 0 1.0 7.0 66 662
- 10.44352 1 7 cbr 210 ------- 0 1.0 7.0 66 662
r 10.44848 1 7 cbr 210 ------- 0 1.0 7.0 65 661
+ 10.45024 1 7 cbr 210 ------- 0 1.0 7.0 67 663
- 10.45024 1 7 cbr 210 ------- 0 1.0 7.0 67 663
r 10.4552 1 7 cbr 210 ------- 0 1.0 7.0 66 662
+ 10.45696 1 7 cbr 210 ------- 0 1.0 7.0 68 664
- 10.45696 1 7 cbr 210 ------- 0 1.0 7.0 68 664
r 10.46192 1 7 cbr 210 ------- 0 1.0 7.0 67 663
+ 10.46368 1 7 cbr 210 ------- 0 1.0 7.0 69 665
- 10.46368 1 7 cbr 210 ------- 0 1.0 7.0 69 665
r 10.46864 1 7 cbr 210 ------- 0 1.0 7.0 68 664
+ 10.4704 1 7 cbr 210 ------- 0 1.0 7.0 70 666
- 10.4704 1 7 cbr 210 ------- 0 1.0 7.0 70 666
r 10.47536 1 7 cbr 210 ------- 0 1.0 7.0 69 665
+ 10.47712 1 7 cbr 210 ------- 0 1.0 7.0 71 667
- 10.47712 1 7 cbr 210 ------- 0 1.0 7.0 71 667
r 10.48208 1 7 cbr 210 ------- 0 1.0 7.0 70 666
+ 10.48384 1 7 cbr 210 ------- 0 1.0 7.0 72 668
- 10.48384 1 7 cbr 210 ------- 0 1.0 7.0 72 668
r 10.4888 1 7 cbr 210 ------- 0 1.0 7.0 71 667
+ 10.49056 1 7 cbr 210 ------- 0 1.0 7.0 73 669
- 10.49056 1 7 cbr 210 ------- 0 1.0 7.0 73 669
r 10.49552 1 7 cbr 210 ------- 0 1.0 7.0 72 668
+ 10.49728 1 7 cbr 210 ------- 0 1.0 7.0 74 670
- 10.49728 1 7 cbr 210 ------- 0 1.0 7.0 74 670
r 10.50224 1 7 cbr 210 ------- 0 1.0 7.0 73 669
+ 10.504 1 7 cbr 210 ------- 0 1.0 7.0 75 671
- 10.504 1 7 cbr 210 ------- 0 1.0 7.0 75 671
r 10.50896 1 7 cbr 210 ------- 0 1.0 7.0 74 670
+ 10.51072 1 7 cbr 210 ------- 0 1.0 7.0 76 672
- 10.51072 1 7 cbr 210 ------- 0 1.0 7.0 76 672
r 10.51568 1 7 cbr 210 ------- 0 1.0 7.0 75 671
+ 10.51744 1 7 cbr 210 ------- 0 1.0 7.0 77 673
- 10.51744 1 7 cbr 210 ------- 0 1.0 7.0 77 673
r 10.5224 1 7 cbr 210 ------- 0 1.0 7.0 76 672
+ 10.52416 1 7 cbr 210 ------- 0 1.0 7.0 78 674
- 10.52416 1 7 cbr 210 ------- 0 1.0 7.0 78 674
r 10.52912 1 7 cbr 210 ------- 0 1.0 7.0 77 673
+ 10.53088 1 7 cbr 210 ------- 0 1.0 7.0 79 675
- 10.53088 1 7 cbr 210 ------- 0 1.0 7.0 79 675
r 10.53584 1 7 cbr 210 ------- 0 1.0 7.0 78 674
+ 10.5376 1 7 cbr 210 ------- 0 1.0 7.0 80 676
- 10.5376 1 7 cbr 210 ------- 0 1.0 7.0 80 676
r 10.54256 1 7 cbr 210 ------- 0 1.0 7.0 79 675
+ 10.54432 1 7 cbr 210 ------- 0 1.0 7.0 81 677
- 10.54432 1 7 cbr 210 ------- 0 1.0 7.0 81 677
r 10.54928 1 7 cbr 210 ------- 0 1.0 7.0 80 676
+ 10.55104 1 7 cbr 210 ------- 0 1.0 7.0 82 678
- 10.55104 1 7 cbr 210 ------- 0 1.0 7.0 82 678
r 10.556 1 7 cbr 210 ------- 0 1.0 7.0 81 677
+ 10.55776 1 7 cbr 210 ------- 0 1.0 7.0 83 679
- 10.55776 1 7 cbr 210 ------- 0 1.0 7.0 83 679
r 10.56272 1 7 cbr 210 ------- 0 1.0 7.0 82 678
+ 10.56448 1 7 cbr 210 ------- 0 1.0 7.0 84 680
- 10.56448 1 7 cbr 210 ------- 0 1.0 7.0 84 680
r 10.56944 1 7 cbr 210 ------- 0 1.0 7.0 83 679
+ 10.5712 1 7 cbr 210 ------- 0 1.0 7.0 85 681
- 10.5712 1 7 cbr 210 ------- 0 1.0 7.0 85 681
r 10.57616 1 7 cbr 210 ------- 0 1.0 7.0 84 680
+ 10.57792 1 7 cbr 210 ------- 0 1.0 7.0 86 682
- 10.57792 1 7 cbr 210 ------- 0 1.0 7.0 86 682
r 10.58288 1 7 cbr 210 ------- 0 1.0 7.0 85 681
+ 10.58464 1 7 cbr 210 ------- 0 1.0 7.0 87 683
- 10.58464 1 7 cbr 210 ------- 0 1.0 7.0 87 683
r 10.5896 1 7 cbr 210 ------- 0 1.0 7.0 86 682
+ 10.59136 1 7 cbr 210 ------- 0 1.0 7.0 88 684
- 10.59136 1 7 cbr 210 ------- 0 1.0 7.0 88 684
r 10.59632 1 7 cbr 210 ------- 0 1.0 7.0 87 683
+ 10.59808 1 7 cbr 210 ------- 0 1.0 7.0 89 685
- 10.59808 1 7 cbr 210 ------- 0 1.0 7.0 89 685
r 10.60304 1 7 cbr 210 ------- 0 1.0 7.0 88 684
+ 10.6048 1 7 cbr 210 ------- 0 1.0 7.0 90 686
- 10.6048 1 7 cbr 210 ------- 0 1.0 7.0 90 686
r 10.60976 1 7 cbr 210 ------- 0 1.0 7.0 89 685
+ 10.61152 1 7 cbr 210 ------- 0 1.0 7.0 91 687
- 10.61152 1 7 cbr 210 ------- 0 1.0 7.0 91 687
r 10.61648 1 7 cbr 210 ------- 0 1.0 7.0 90 686
+ 10.61824 1 7 cbr 210 ------- 0 1.0 7.0 92 688
- 10.61824 1 7 cbr 210 ------- 0 1.0 7.0 92 688
r 10.6232 1 7 cbr 210 ------- 0 1.0 7.0 91 687
+ 10.62496 1 7 cbr 210 ------- 0 1.0 7.0 93 689
- 10.62496 1 7 cbr 210 ------- 0 1.0 7.0 93 689
r 10.62992 1 7 cbr 210 ------- 0 1.0 7.0 92 688
+ 10.63168 1 7 cbr 210 ------- 0 1.0 7.0 94 690
- 10.63168 1 7 cbr 210 ------- 0 1.0 7.0 94 690
r 10.63664 1 7 cbr 210 ------- 0 1.0 7.0 93 689
+ 10.6384 1 7 cbr 210 ------- 0 1.0 7.0 95 691
- 10.6384 1 7 cbr 210 ------- 0 1.0 7.0 95 691
r 10.64336 1 7 cbr 210 ------- 0 1.0 7.0 94 690
+ 10.64512 1 7 cbr 210 ------- 0 1.0 7.0 96 692
- 10.64512 1 7 cbr 210 ------- 0 1.0 7.0 96 692
r 10.65008 1 7 cbr 210 ------- 0 1.0 7.0 95 691
+ 10.65184 1 7 cbr 210 ------- 0 1.0 7.0 97 693
- 10.65184 1 7 cbr 210 ------- 0 1.0 7.0 97 693
r 10.6568 1 7 cbr 210 ------- 0 1.0 7.0 96 692
+ 10.65856 1 7 cbr 210 ------- 0 1.0 7.0 98 694
- 10.65856 1 7 cbr 210 ------- 0 1.0 7.0 98 694
r 10.66352 1 7 cbr 210 ------- 0 1.0 7.0 97 693
+ 10.66528 1 7 cbr 210 ------- 0 1.0 7.0 99 695
- 10.66528 1 7 cbr 210 ------- 0 1.0 7.0 99 695
r 10.67024 1 7 cbr 210 ------- 0 1.0 7.0 98 694
+ 10.672 1 7 cbr 210 ------- 0 1.0 7.0 100 696
- 10.672 1 7 cbr 210 ------- 0 1.0 7.0 100 696
r 10.67696 1 7 cbr 210 ------- 0 1.0 7.0 99 695
+ 10.67872 1 7 cbr 210 ------- 0 1.0 7.0 101 697
- 10.67872 1 7 cbr 210 ------- 0 1.0 7.0 101 697
r 10.68368 1 7 cbr 210 ------- 0 1.0 7.0 100 696
+ 10.68544 1 7 cbr 210 ------- 0 1.0 7.0 102 698
- 10.68544 1 7 cbr 210 ------- 0 1.0 7.0 102 698
r 10.6904 1 7 cbr 210 ------- 0 1.0 7.0 101 697
+ 10.69216 1 7 cbr 210 ------- 0 1.0 7.0 103 699
- 10.69216 1 7 cbr 210 ------- 0 1.0 7.0 103 699
r 10.69712 1 7 cbr 210 ------- 0 1.0 7.0 102 698
+ 10.69888 1 7 cbr 210 ------- 0 1.0 7.0 104 700
- 10.69888 1 7 cbr 210 ------- 0 1.0 7.0 104 700
r 10.70384 1 7 cbr 210 ------- 0 1.0 7.0 103 699
+ 10.7056 1 7 cbr 210 ------- 0 1.0 7.0 105 701
- 10.7056 1 7 cbr 210 ------- 0 1.0 7.0 105 701
r 10.71056 1 7 cbr 210 ------- 0 1.0 7.0 104 700
+ 10.71232 1 7 cbr 210 ------- 0 1.0 7.0 106 702
- 10.71232 1 7 cbr 210 ------- 0 1.0 7.0 106 702
r 10.71728 1 7 cbr 210 ------- 0 1.0 7.0 105 701
+ 10.71904 1 7 cbr 210 ------- 0 1.0 7.0 107 703
- 10.71904 1 7 cbr 210 ------- 0 1.0 7.0 107 703
r 10.724 1 7 cbr 210 ------- 0 1.0 7.0 106 702
+ 10.72576 1 7 cbr 210 ------- 0 1.0 7.0 108 704
- 10.72576 1 7 cbr 210 ------- 0 1.0 7.0 108 704
r 10.73072 1 7 cbr 210 ------- 0 1.0 7.0 107 703
+ 10.73248 1 7 cbr 210 ------- 0 1.0 7.0 109 705
- 10.73248 1 7 cbr 210 ------- 0 1.0 7.0 109 705
r 10.73744 1 7 cbr 210 ------- 0 1.0 7.0 108 704
+ 10.7392 1 7 cbr 210 ------- 0 1.0 7.0 110 706
- 10.7392 1 7 cbr 210 ------- 0 1.0 7.0 110 706
r 10.74416 1 7 cbr 210 ------- 0 1.0 7.0 109 705
+ 10.74592 1 7 cbr 210 ------- 0 1.0 7.0 111 707
- 10.74592 1 7 cbr 210 ------- 0 1.0 7.0 111 707
r 10.75088 1 7 cbr 210 ------- 0 1.0 7.0 110 706
+ 10.75264 1 7 cbr 210 ------- 0 1.0 7.0 112 708
- 10.75264 1 7 cbr 210 ------- 0 1.0 7.0 112 708
r 10.7576 1 7 cbr 210 ------- 0 1.0 7.0 111 707
+ 10.75936 1 7 cbr 210 ------- 0 1.0 7.0 113 709
- 10.75936 1 7 cbr 210 ------- 0 1.0 7.0 113 709
r 10.76432 1 7 cbr 210 ------- 0 1.0 7.0 112 708
+ 10.76608 1 7 cbr 210 ------- 0 1.0 7.0 114 710
- 10.76608 1 7 cbr 210 ------- 0 1.0 7.0 114 710
r 10.77104 1 7 cbr 210 ------- 0 1.0 7.0 113 709
+ 10.7728 1 7 cbr 210 ------- 0 1.0 7.0 115 711
- 10.7728 1 7 cbr 210 ------- 0 1.0 7.0 115 711
r 10.77776 1 7 cbr 210 ------- 0 1.0 7.0 114 710
+ 10.77952 1 7 cbr 210 ------- 0 1.0 7.0 116 712
- 10.77952 1 7 cbr 210 ------- 0 1.0 7.0 116 712
r 10.78448 1 7 cbr 210 ------- 0 1.0 7.0 115 711
+ 10.78624 1 7 cbr 210 ------- 0 1.0 7.0 117 713
- 10.78624 1 7 cbr 210 ------- 0 1.0 7.0 117 713
r 10.7912 1 7 cbr 210 ------- 0 1.0 7.0 116 712
+ 10.79296 1 7 cbr 210 ------- 0 1.0 7.0 118 714
- 10.79296 1 7 cbr 210 ------- 0 1.0 7.0 118 714
r 10.79792 1 7 cbr 210 ------- 0 1.0 7.0 117 713
+ 10.79968 1 7 cbr 210 ------- 0 1.0 7.0 119 715
- 10.79968 1 7 cbr 210 ------- 0 1.0 7.0 119 715
r 10.80464 1 7 cbr 210 ------- 0 1.0 7.0 118 714
+ 10.8064 1 7 cbr 210 ------- 0 1.0 7.0 120 716
- 10.8064 1 7 cbr 210 ------- 0 1.0 7.0 120 716
r 10.81136 1 7 cbr 210 ------- 0 1.0 7.0 119 715
+ 10.81312 1 7 cbr 210 ------- 0 1.0 7.0 121 717
- 10.81312 1 7 cbr 210 ------- 0 1.0 7.0 121 717
r 10.81808 1 7 cbr 210 ------- 0 1.0 7.0 120 716
+ 10.81984 1 7 cbr 210 ------- 0 1.0 7.0 122 718
- 10.81984 1 7 cbr 210 ------- 0 1.0 7.0 122 718
r 10.8248 1 7 cbr 210 ------- 0 1.0 7.0 121 717
+ 10.82656 1 7 cbr 210 ------- 0 1.0 7.0 123 719
- 10.82656 1 7 cbr 210 ------- 0 1.0 7.0 123 719
r 10.83152 1 7 cbr 210 ------- 0 1.0 7.0 122 718
+ 10.83328 1 7 cbr 210 ------- 0 1.0 7.0 124 720
- 10.83328 1 7 cbr 210 ------- 0 1.0 7.0 124 720
r 10.83824 1 7 cbr 210 ------- 0 1.0 7.0 123 719
+ 10.84 1 7 cbr 210 ------- 0 1.0 7.0 125 721
- 10.84 1 7 cbr 210 ------- 0 1.0 7.0 125 721
r 10.84496 1 7 cbr 210 ------- 0 1.0 7.0 124 720
+ 10.84672 1 7 cbr 210 ------- 0 1.0 7.0 126 722
- 10.84672 1 7 cbr 210 ------- 0 1.0 7.0 126 722
r 10.85168 1 7 cbr 210 ------- 0 1.0 7.0 125 721
+ 10.85344 1 7 cbr 210 ------- 0 1.0 7.0 127 723
- 10.85344 1 7 cbr 210 ------- 0 1.0 7.0 127 723
r 10.8584 1 7 cbr 210 ------- 0 1.0 7.0 126 722
+ 10.86016 1 7 cbr 210 ------- 0 1.0 7.0 128 724
- 10.86016 1 7 cbr 210 ------- 0 1.0 7.0 128 724
r 10.86512 1 7 cbr 210 ------- 0 1.0 7.0 127 723
+ 10.86688 1 7 cbr 210 ------- 0 1.0 7.0 129 725
- 10.86688 1 7 cbr 210 ------- 0 1.0 7.0 129 725
r 10.87184 1 7 cbr 210 ------- 0 1.0 7.0 128 724
+ 10.8736 1 7 cbr 210 ------- 0 1.0 7.0 130 726
- 10.8736 1 7 cbr 210 ------- 0 1.0 7.0 130 726
r 10.87856 1 7 cbr 210 ------- 0 1.0 7.0 129 725
+ 10.88032 1 7 cbr 210 ------- 0 1.0 7.0 131 727
- 10.88032 1 7 cbr 210 ------- 0 1.0 7.0 131 727
r 10.88528 1 7 cbr 210 ------- 0 1.0 7.0 130 726
+ 10.88704 1 7 cbr 210 ------- 0 1.0 7.0 132 728
- 10.88704 1 7 cbr 210 ------- 0 1.0 7.0 132 728
r 10.892 1 7 cbr 210 ------- 0 1.0 7.0 131 727
+ 10.89376 1 7 cbr 210 ------- 0 1.0 7.0 133 729
- 10.89376 1 7 cbr 210 ------- 0 1.0 7.0 133 729
r 10.89872 1 7 cbr 210 ------- 0 1.0 7.0 132 728
+ 10.90048 1 7 cbr 210 ------- 0 1.0 7.0 134 730
- 10.90048 1 7 cbr 210 ------- 0 1.0 7.0 134 730
r 10.90544 1 7 cbr 210 ------- 0 1.0 7.0 133 729
+ 10.9072 1 7 cbr 210 ------- 0 1.0 7.0 135 731
- 10.9072 1 7 cbr 210 ------- 0 1.0 7.0 135 731
r 10.91216 1 7 cbr 210 ------- 0 1.0 7.0 134 730
+ 10.91392 1 7 cbr 210 ------- 0 1.0 7.0 136 732
- 10.91392 1 7 cbr 210 ------- 0 1.0 7.0 136 732
r 10.91888 1 7 cbr 210 ------- 0 1.0 7.0 135 731
+ 10.92064 1 7 cbr 210 ------- 0 1.0 7.0 137 733
- 10.92064 1 7 cbr 210 ------- 0 1.0 7.0 137 733
r 10.9256 1 7 cbr 210 ------- 0 1.0 7.0 136 732
+ 10.92736 1 7 cbr 210 ------- 0 1.0 7.0 138 734
- 10.92736 1 7 cbr 210 ------- 0 1.0 7.0 138 734
r 10.93232 1 7 cbr 210 ------- 0 1.0 7.0 137 733
+ 10.93408 1 7 cbr 210 ------- 0 1.0 7.0 139 735
- 10.93408 1 7 cbr 210 ------- 0 1.0 7.0 139 735
r 10.93904 1 7 cbr 210 ------- 0 1.0 7.0 138 734
+ 10.9408 1 7 cbr 210 ------- 0 1.0 7.0 140 736
- 10.9408 1 7 cbr 210 ------- 0 1.0 7.0 140 736
r 10.94576 1 7 cbr 210 ------- 0 1.0 7.0 139 735
+ 10.94752 1 7 cbr 210 ------- 0 1.0 7.0 141 737
- 10.94752 1 7 cbr 210 ------- 0 1.0 7.0 141 737
r 10.95248 1 7 cbr 210 ------- 0 1.0 7.0 140 736
+ 10.95424 1 7 cbr 210 ------- 0 1.0 7.0 142 738
- 10.95424 1 7 cbr 210 ------- 0 1.0 7.0 142 738
r 10.9592 1 7 cbr 210 ------- 0 1.0 7.0 141 737
+ 10.96096 1 7 cbr 210 ------- 0 1.0 7.0 143 739
- 10.96096 1 7 cbr 210 ------- 0 1.0 7.0 143 739
r 10.96592 1 7 cbr 210 ------- 0 1.0 7.0 142 738
+ 10.96768 1 7 cbr 210 ------- 0 1.0 7.0 144 740
- 10.96768 1 7 cbr 210 ------- 0 1.0 7.0 144 740
r 10.97264 1 7 cbr 210 ------- 0 1.0 7.0 143 739
+ 10.9744 1 7 cbr 210 ------- 0 1.0 7.0 145 741
- 10.9744 1 7 cbr 210 ------- 0 1.0 7.0 145 741
r 10.97936 1 7 cbr 210 ------- 0 1.0 7.0 144 740
+ 10.98112 1 7 cbr 210 ------- 0 1.0 7.0 146 742
- 10.98112 1 7 cbr 210 ------- 0 1.0 7.0 146 742
r 10.98608 1 7 cbr 210 ------- 0 1.0 7.0 145 741
+ 10.98784 1 7 cbr 210 ------- 0 1.0 7.0 147 743
- 10.98784 1 7 cbr 210 ------- 0 1.0 7.0 147 743
r 10.9928 1 7 cbr 210 ------- 0 1.0 7.0 146 742
+ 10.99456 1 7 cbr 210 ------- 0 1.0 7.0 148 744
- 10.99456 1 7 cbr 210 ------- 0 1.0 7.0 148 744
r 10.99952 1 7 cbr 210 ------- 0 1.0 7.0 147 743
+ 11.00128 1 7 cbr 210 ------- 0 1.0 7.0 149 745
- 11.00128 1 7 cbr 210 ------- 0 1.0 7.0 149 745
r 11.00624 1 7 cbr 210 ------- 0 1.0 7.0 148 744
+ 11.008 1 7 cbr 210 ------- 0 1.0 7.0 150 746
- 11.008 1 7 cbr 210 ------- 0 1.0 7.0 150 746
r 11.01296 1 7 cbr 210 ------- 0 1.0 7.0 149 745
+ 11.01472 1 7 cbr 210 ------- 0 1.0 7.0 151 747
- 11.01472 1 7 cbr 210 ------- 0 1.0 7.0 151 747
r 11.01968 1 7 cbr 210 ------- 0 1.0 7.0 150 746
+ 11.02144 1 7 cbr 210 ------- 0 1.0 7.0 152 748
- 11.02144 1 7 cbr 210 ------- 0 1.0 7.0 152 748
r 11.0264 1 7 cbr 210 ------- 0 1.0 7.0 151 747
+ 11.02816 1 7 cbr 210 ------- 0 1.0 7.0 153 749
- 11.02816 1 7 cbr 210 ------- 0 1.0 7.0 153 749
r 11.03312 1 7 cbr 210 ------- 0 1.0 7.0 152 748
+ 11.03488 1 7 cbr 210 ------- 0 1.0 7.0 154 750
- 11.03488 1 7 cbr 210 ------- 0 1.0 7.0 154 750
r 11.03984 1 7 cbr 210 ------- 0 1.0 7.0 153 749
+ 11.0416 1 7 cbr 210 ------- 0 1.0 7.0 155 751
- 11.0416 1 7 cbr 210 ------- 0 1.0 7.0 155 751
r 11.04656 1 7 cbr 210 ------- 0 1.0 7.0 154 750
+ 11.04832 1 7 cbr 210 ------- 0 1.0 7.0 156 752
- 11.04832 1 7 cbr 210 ------- 0 1.0 7.0 156 752
r 11.05328 1 7 cbr 210 ------- 0 1.0 7.0 155 751
+ 11.05504 1 7 cbr 210 ------- 0 1.0 7.0 157 753
- 11.05504 1 7 cbr 210 ------- 0 1.0 7.0 157 753
r 11.06 1 7 cbr 210 ------- 0 1.0 7.0 156 752
+ 11.06176 1 7 cbr 210 ------- 0 1.0 7.0 158 754
- 11.06176 1 7 cbr 210 ------- 0 1.0 7.0 158 754
r 11.06672 1 7 cbr 210 ------- 0 1.0 7.0 157 753
+ 11.06848 1 7 cbr 210 ------- 0 1.0 7.0 159 755
- 11.06848 1 7 cbr 210 ------- 0 1.0 7.0 159 755
r 11.07344 1 7 cbr 210 ------- 0 1.0 7.0 158 754
+ 11.0752 1 7 cbr 210 ------- 0 1.0 7.0 160 756
- 11.0752 1 7 cbr 210 ------- 0 1.0 7.0 160 756
r 11.08016 1 7 cbr 210 ------- 0 1.0 7.0 159 755
+ 11.08192 1 7 cbr 210 ------- 0 1.0 7.0 161 757
- 11.08192 1 7 cbr 210 ------- 0 1.0 7.0 161 757
r 11.08688 1 7 cbr 210 ------- 0 1.0 7.0 160 756
+ 11.08864 1 7 cbr 210 ------- 0 1.0 7.0 162 758
- 11.08864 1 7 cbr 210 ------- 0 1.0 7.0 162 758
r 11.0936 1 7 cbr 210 ------- 0 1.0 7.0 161 757
+ 11.09536 1 7 cbr 210 ------- 0 1.0 7.0 163 759
- 11.09536 1 7 cbr 210 ------- 0 1.0 7.0 163 759
r 11.10032 1 7 cbr 210 ------- 0 1.0 7.0 162 758
+ 11.10208 1 7 cbr 210 ------- 0 1.0 7.0 164 760
- 11.10208 1 7 cbr 210 ------- 0 1.0 7.0 164 760
r 11.10704 1 7 cbr 210 ------- 0 1.0 7.0 163 759
+ 11.1088 1 7 cbr 210 ------- 0 1.0 7.0 165 761
- 11.1088 1 7 cbr 210 ------- 0 1.0 7.0 165 761
r 11.11376 1 7 cbr 210 ------- 0 1.0 7.0 164 760
+ 11.11552 1 7 cbr 210 ------- 0 1.0 7.0 166 762
- 11.11552 1 7 cbr 210 ------- 0 1.0 7.0 166 762
r 11.12048 1 7 cbr 210 ------- 0 1.0 7.0 165 761
+ 11.12224 1 7 cbr 210 ------- 0 1.0 7.0 167 763
- 11.12224 1 7 cbr 210 ------- 0 1.0 7.0 167 763
r 11.1272 1 7 cbr 210 ------- 0 1.0 7.0 166 762
+ 11.12896 1 7 cbr 210 ------- 0 1.0 7.0 168 764
- 11.12896 1 7 cbr 210 ------- 0 1.0 7.0 168 764
r 11.13392 1 7 cbr 210 ------- 0 1.0 7.0 167 763
+ 11.13568 1 7 cbr 210 ------- 0 1.0 7.0 169 765
- 11.13568 1 7 cbr 210 ------- 0 1.0 7.0 169 765
r 11.14064 1 7 cbr 210 ------- 0 1.0 7.0 168 764
+ 11.1424 1 7 cbr 210 ------- 0 1.0 7.0 170 766
- 11.1424 1 7 cbr 210 ------- 0 1.0 7.0 170 766
r 11.14736 1 7 cbr 210 ------- 0 1.0 7.0 169 765
+ 11.14912 1 7 cbr 210 ------- 0 1.0 7.0 171 767
- 11.14912 1 7 cbr 210 ------- 0 1.0 7.0 171 767
r 11.15408 1 7 cbr 210 ------- 0 1.0 7.0 170 766
+ 11.15584 1 7 cbr 210 ------- 0 1.0 7.0 172 768
- 11.15584 1 7 cbr 210 ------- 0 1.0 7.0 172 768
r 11.1608 1 7 cbr 210 ------- 0 1.0 7.0 171 767
+ 11.16256 1 7 cbr 210 ------- 0 1.0 7.0 173 769
- 11.16256 1 7 cbr 210 ------- 0 1.0 7.0 173 769
r 11.16752 1 7 cbr 210 ------- 0 1.0 7.0 172 768
+ 11.16928 1 7 cbr 210 ------- 0 1.0 7.0 174 770
- 11.16928 1 7 cbr 210 ------- 0 1.0 7.0 174 770
r 11.17424 1 7 cbr 210 ------- 0 1.0 7.0 173 769
+ 11.176 1 7 cbr 210 ------- 0 1.0 7.0 175 771
- 11.176 1 7 cbr 210 ------- 0 1.0 7.0 175 771
r 11.18096 1 7 cbr 210 ------- 0 1.0 7.0 174 770
+ 11.18272 1 7 cbr 210 ------- 0 1.0 7.0 176 772
- 11.18272 1 7 cbr 210 ------- 0 1.0 7.0 176 772
r 11.18768 1 7 cbr 210 ------- 0 1.0 7.0 175 771
+ 11.18944 1 7 cbr 210 ------- 0 1.0 7.0 177 773
- 11.18944 1 7 cbr 210 ------- 0 1.0 7.0 177 773
r 11.1944 1 7 cbr 210 ------- 0 1.0 7.0 176 772
+ 11.19616 1 7 cbr 210 ------- 0 1.0 7.0 178 774
- 11.19616 1 7 cbr 210 ------- 0 1.0 7.0 178 774
r 11.20112 1 7 cbr 210 ------- 0 1.0 7.0 177 773
+ 11.20288 1 7 cbr 210 ------- 0 1.0 7.0 179 775
- 11.20288 1 7 cbr 210 ------- 0 1.0 7.0 179 775
r 11.20784 1 7 cbr 210 ------- 0 1.0 7.0 178 774
+ 11.2096 1 7 cbr 210 ------- 0 1.0 7.0 180 776
- 11.2096 1 7 cbr 210 ------- 0 1.0 7.0 180 776
r 11.21456 1 7 cbr 210 ------- 0 1.0 7.0 179 775
+ 11.21632 1 7 cbr 210 ------- 0 1.0 7.0 181 777
- 11.21632 1 7 cbr 210 ------- 0 1.0 7.0 181 777
r 11.22128 1 7 cbr 210 ------- 0 1.0 7.0 180 776
+ 11.22304 1 7 cbr 210 ------- 0 1.0 7.0 182 778
- 11.22304 1 7 cbr 210 ------- 0 1.0 7.0 182 778
r 11.228 1 7 cbr 210 ------- 0 1.0 7.0 181 777
+ 11.22976 1 7 cbr 210 ------- 0 1.0 7.0 183 779
- 11.22976 1 7 cbr 210 ------- 0 1.0 7.0 183 779
r 11.23472 1 7 cbr 210 ------- 0 1.0 7.0 182 778
+ 11.23648 1 7 cbr 210 ------- 0 1.0 7.0 184 780
- 11.23648 1 7 cbr 210 ------- 0 1.0 7.0 184 780
r 11.24144 1 7 cbr 210 ------- 0 1.0 7.0 183 779
+ 11.2432 1 7 cbr 210 ------- 0 1.0 7.0 185 781
- 11.2432 1 7 cbr 210 ------- 0 1.0 7.0 185 781
r 11.24816 1 7 cbr 210 ------- 0 1.0 7.0 184 780
+ 11.24992 1 7 cbr 210 ------- 0 1.0 7.0 186 782
- 11.24992 1 7 cbr 210 ------- 0 1.0 7.0 186 782
r 11.25488 1 7 cbr 210 ------- 0 1.0 7.0 185 781
+ 11.25664 1 7 cbr 210 ------- 0 1.0 7.0 187 783
- 11.25664 1 7 cbr 210 ------- 0 1.0 7.0 187 783
r 11.2616 1 7 cbr 210 ------- 0 1.0 7.0 186 782
+ 11.26336 1 7 cbr 210 ------- 0 1.0 7.0 188 784
- 11.26336 1 7 cbr 210 ------- 0 1.0 7.0 188 784
r 11.26832 1 7 cbr 210 ------- 0 1.0 7.0 187 783
+ 11.27008 1 7 cbr 210 ------- 0 1.0 7.0 189 785
- 11.27008 1 7 cbr 210 ------- 0 1.0 7.0 189 785
r 11.27504 1 7 cbr 210 ------- 0 1.0 7.0 188 784
+ 11.2768 1 7 cbr 210 ------- 0 1.0 7.0 190 786
- 11.2768 1 7 cbr 210 ------- 0 1.0 7.0 190 786
r 11.28176 1 7 cbr 210 ------- 0 1.0 7.0 189 785
+ 11.28352 1 7 cbr 210 ------- 0 1.0 7.0 191 787
- 11.28352 1 7 cbr 210 ------- 0 1.0 7.0 191 787
r 11.28848 1 7 cbr 210 ------- 0 1.0 7.0 190 786
+ 11.29024 1 7 cbr 210 ------- 0 1.0 7.0 192 788
- 11.29024 1 7 cbr 210 ------- 0 1.0 7.0 192 788
r 11.2952 1 7 cbr 210 ------- 0 1.0 7.0 191 787
+ 11.29696 1 7 cbr 210 ------- 0 1.0 7.0 193 789
- 11.29696 1 7 cbr 210 ------- 0 1.0 7.0 193 789
r 11.30192 1 7 cbr 210 ------- 0 1.0 7.0 192 788
+ 11.30368 1 7 cbr 210 ------- 0 1.0 7.0 194 790
- 11.30368 1 7 cbr 210 ------- 0 1.0 7.0 194 790
r 11.30864 1 7 cbr 210 ------- 0 1.0 7.0 193 789
+ 11.3104 1 7 cbr 210 ------- 0 1.0 7.0 195 791
- 11.3104 1 7 cbr 210 ------- 0 1.0 7.0 195 791
r 11.31536 1 7 cbr 210 ------- 0 1.0 7.0 194 790
+ 11.31712 1 7 cbr 210 ------- 0 1.0 7.0 196 792
- 11.31712 1 7 cbr 210 ------- 0 1.0 7.0 196 792
r 11.32208 1 7 cbr 210 ------- 0 1.0 7.0 195 791
+ 11.32384 1 7 cbr 210 ------- 0 1.0 7.0 197 793
- 11.32384 1 7 cbr 210 ------- 0 1.0 7.0 197 793
r 11.3288 1 7 cbr 210 ------- 0 1.0 7.0 196 792
+ 11.33056 1 7 cbr 210 ------- 0 1.0 7.0 198 794
- 11.33056 1 7 cbr 210 ------- 0 1.0 7.0 198 794
r 11.33552 1 7 cbr 210 ------- 0 1.0 7.0 197 793
+ 11.33728 1 7 cbr 210 ------- 0 1.0 7.0 199 795
- 11.33728 1 7 cbr 210 ------- 0 1.0 7.0 199 795
r 11.34224 1 7 cbr 210 ------- 0 1.0 7.0 198 794
+ 11.344 1 7 cbr 210 ------- 0 1.0 7.0 200 796
- 11.344 1 7 cbr 210 ------- 0 1.0 7.0 200 796
r 11.34896 1 7 cbr 210 ------- 0 1.0 7.0 199 795
+ 11.35072 1 7 cbr 210 ------- 0 1.0 7.0 201 797
- 11.35072 1 7 cbr 210 ------- 0 1.0 7.0 201 797
r 11.35568 1 7 cbr 210 ------- 0 1.0 7.0 200 796
+ 11.35744 1 7 cbr 210 ------- 0 1.0 7.0 202 798
- 11.35744 1 7 cbr 210 ------- 0 1.0 7.0 202 798
r 11.3624 1 7 cbr 210 ------- 0 1.0 7.0 201 797
+ 11.36416 1 7 cbr 210 ------- 0 1.0 7.0 203 799
- 11.36416 1 7 cbr 210 ------- 0 1.0 7.0 203 799
r 11.36912 1 7 cbr 210 ------- 0 1.0 7.0 202 798
+ 11.37088 1 7 cbr 210 ------- 0 1.0 7.0 204 800
- 11.37088 1 7 cbr 210 ------- 0 1.0 7.0 204 800
r 11.37584 1 7 cbr 210 ------- 0 1.0 7.0 203 799
+ 11.3776 1 7 cbr 210 ------- 0 1.0 7.0 205 801
- 11.3776 1 7 cbr 210 ------- 0 1.0 7.0 205 801
r 11.38256 1 7 cbr 210 ------- 0 1.0 7.0 204 800
+ 11.38432 1 7 cbr 210 ------- 0 1.0 7.0 206 802
- 11.38432 1 7 cbr 210 ------- 0 1.0 7.0 206 802
r 11.38928 1 7 cbr 210 ------- 0 1.0 7.0 205 801
+ 11.39104 1 7 cbr 210 ------- 0 1.0 7.0 207 803
- 11.39104 1 7 cbr 210 ------- 0 1.0 7.0 207 803