+ 50 5 7 cbr 210 ------- 0 5.0 7.0 0 19944
- 50 5 7 cbr 210 ------- 0 5.0 7.0 0 19944
+ 50.00084 5 7 cbr 210 ------- 0 5.0 7.0 1 19945
+ 50.00168 5 7 cbr 210 ------- 0 5.0 7.0 2 19946
- 50.00168 5 7 cbr 210 ------- 0 5.0 7.0 1 19945
+ 50.00252 5 7 cbr 210 ------- 0 5.0 7.0 3 19947
+ 50.00336 5 7 cbr 210 ------- 0 5.0 7.0 4 19948
- 50.00336 5 7 cbr 210 ------- 0 5.0 7.0 2 19946
+ 50.0042 5 7 cbr 210 ------- 0 5.0 7.0 5 19949
+ 50.00504 5 7 cbr 210 ------- 0 5.0 7.0 6 19950
- 50.00504 5 7 cbr 210 ------- 0 5.0 7.0 3 19947
+ 50.00588 5 7 cbr 210 ------- 0 5.0 7.0 7 19951
+ 50.00672 5 7 cbr 210 ------- 0 5.0 7.0 8 19952
- 50.00672 5 7 cbr 210 ------- 0 5.0 7.0 4 19948
+ 50.00756 5 7 cbr 210 ------- 0 5.0 7.0 9 19953
+ 50.0084 5 7 cbr 210 ------- 0 5.0 7.0 10 19954
- 50.0084 5 7 cbr 210 ------- 0 5.0 7.0 5 19949
+ 50.00924 5 7 cbr 210 ------- 0 5.0 7.0 11 19955
+ 50.01008 5 7 cbr 210 ------- 0 5.0 7.0 12 19956
- 50.01008 5 7 cbr 210 ------- 0 5.0 7.0 6 19950
+ 50.01092 5 7 cbr 210 ------- 0 5.0 7.0 13 19957
r 50.01168 5 7 cbr 210 ------- 0 5.0 7.0 0 19944
+ 50.01176 5 7 cbr 210 ------- 0 5.0 7.0 14 19958
- 50.01176 5 7 cbr 210 ------- 0 5.0 7.0 7 19951
+ 50.0126 5 7 cbr 210 ------- 0 5.0 7.0 15 19959
r 50.01336 5 7 cbr 210 ------- 0 5.0 7.0 1 19945
+ 50.01344 5 7 cbr 210 ------- 0 5.0 7.0 16 19960
- 50.01344 5 7 cbr 210 ------- 0 5.0 7.0 8 19952
+ 50.01428 5 7 cbr 210 ------- 0 5.0 7.0 17 19961
r 50.01504 5 7 cbr 210 ------- 0 5.0 7.0 2 19946
+ 50.01512 5 7 cbr 210 ------- 0 5.0 7.0 18 19962
- 50.01512 5 7 cbr 210 ------- 0 5.0 7.0 9 19953
+ 50.01596 5 7 cbr 210 ------- 0 5.0 7.0 19 19963
r 50.01672 5 7 cbr 210 ------- 0 5.0 7.0 3 19947
+ 50.0168 5 7 cbr 210 ------- 0 5.0 7.0 20 19964
- 50.0168 5 7 cbr 210 ------- 0 5.0 7.0 10 19954
+ 50.01764 5 7 cbr 210 ------- 0 5.0 7.0 21 19965
r 50.0184 5 7 cbr 210 ------- 0 5.0 7.0 4 19948
+ 50.01848 5 7 cbr 210 ------- 0 5.0 7.0 22 19966
- 50.01848 5 7 cbr 210 ------- 0 5.0 7.0 11 19955
+ 50.01932 5 7 cbr 210 ------- 0 5.0 7.0 23 19967
r 50.02008 5 7 cbr 210 ------- 0 5.0 7.0 5 19949
+ 50.02016 5 7 cbr 210 ------- 0 5.0 7.0 24 19968
- 50.02016 5 7 cbr 210 ------- 0 5.0 7.0 12 19956
+ 50.021 5 7 cbr 210 ------- 0 5.0 7.0 25 19969
r 50.02176 5 7 cbr 210 ------- 0 5.0 7.0 6 19950
+ 50.02184 5 7 cbr 210 ------- 0 5.0 7.0 26 19970
- 50.02184 5 7 cbr 210 ------- 0 5.0 7.0 13 19957
+ 50.02268 5 7 cbr 210 ------- 0 5.0 7.0 27 19971
r 50.02344 5 7 cbr 210 ------- 0 5.0 7.0 7 19951
+ 50.02352 5 7 cbr 210 ------- 0 5.0 7.0 28 19972
- 50.02352 5 7 cbr 210 ------- 0 5.0 7.0 14 19958
+ 50.02436 5 7 cbr 210 ------- 0 5.0 7.0 29 19973
r 50.02512 5 7 cbr 210 ------- 0 5.0 7.0 8 19952
+ 50.0252 5 7 cbr 210 ------- 0 5.0 7.0 30 19974
- 50.0252 5 7 cbr 210 ------- 0 5.0 7.0 15 19959
+ 50.02604 5 7 cbr 210 ------- 0 5.0 7.0 31 19975
r 50.0268 5 7 cbr 210 ------- 0 5.0 7.0 9 19953
+ 50.02688 5 7 cbr 210 ------- 0 5.0 7.0 32 19976
- 50.02688 5 7 cbr 210 ------- 0 5.0 7.0 16 19960
+ 50.02772 5 7 cbr 210 ------- 0 5.0 7.0 33 19977
r 50.02848 5 7 cbr 210 ------- 0 5.0 7.0 10 19954
+ 50.02856 5 7 cbr 210 ------- 0 5.0 7.0 34 19978
- 50.02856 5 7 cbr 210 ------- 0 5.0 7.0 17 19961
+ 50.0294 5 7 cbr 210 ------- 0 5.0 7.0 35 19979
r 50.03016 5 7 cbr 210 ------- 0 5.0 7.0 11 19955
+ 50.03024 5 7 cbr 210 ------- 0 5.0 7.0 36 19980
- 50.03024 5 7 cbr 210 ------- 0 5.0 7.0 18 19962
+ 50.03108 5 7 cbr 210 ------- 0 5.0 7.0 37 19981
r 50.03184 5 7 cbr 210 ------- 0 5.0 7.0 12 19956
+ 50.03192 5 7 cbr 210 ------- 0 5.0 7.0 38 19982
- 50.03192 5 7 cbr 210 ------- 0 5.0 7.0 19 19963
+ 50.03276 5 7 cbr 210 ------- 0 5.0 7.0 39 19983
r 50.03352 5 7 cbr 210 ------- 0 5.0 7.0 13 19957
+ 50.0336 5 7 cbr 210 ------- 0 5.0 7.0 40 19984
- 50.0336 5 7 cbr 210 ------- 0 5.0 7.0 20 19964
+ 50.03444 5 7 cbr 210 ------- 0 5.0 7.0 41 19985
r 50.0352 5 7 cbr 210 ------- 0 5.0 7.0 14 19958
+ 50.03528 5 7 cbr 210 ------- 0 5.0 7.0 42 19986
- 50.03528 5 7 cbr 210 ------- 0 5.0 7.0 21 19965
+ 50.03612 5 7 cbr 210 ------- 0 5.0 7.0 43 19987
r 50.03688 5 7 cbr 210 ------- 0 5.0 7.0 15 19959
+ 50.03696 5 7 cbr 210 ------- 0 5.0 7.0 44 19988
- 50.03696 5 7 cbr 210 ------- 0 5.0 7.0 22 19966
+ 50.0378 5 7 cbr 210 ------- 0 5.0 7.0 45 19989
r 50.03856 5 7 cbr 210 ------- 0 5.0 7.0 16 19960
+ 50.03864 5 7 cbr 210 ------- 0 5.0 7.0 46 19990
- 50.03864 5 7 cbr 210 ------- 0 5.0 7.0 23 19967
+ 50.03948 5 7 cbr 210 ------- 0 5.0 7.0 47 19991
r 50.04024 5 7 cbr 210 ------- 0 5.0 7.0 17 19961
+ 50.04032 5 7 cbr 210 ------- 0 5.0 7.0 48 19992
- 50.04032 5 7 cbr 210 ------- 0 5.0 7.0 24 19968
+ 50.04116 5 7 cbr 210 ------- 0 5.0 7.0 49 19993
r 50.04192 5 7 cbr 210 ------- 0 5.0 7.0 18 19962
+ 50.042 5 7 cbr 210 ------- 0 5.0 7.0 50 19994
- 50.042 5 7 cbr 210 ------- 0 5.0 7.0 25 19969
+ 50.04284 5 7 cbr 210 ------- 0 5.0 7.0 51 19995
r 50.0436 5 7 cbr 210 ------- 0 5.0 7.0 19 19963
+ 50.04368 5 7 cbr 210 ------- 0 5.0 7.0 52 19996
- 50.04368 5 7 cbr 210 ------- 0 5.0 7.0 26 19970
+ 50.04452 5 7 cbr 210 ------- 0 5.0 7.0 53 19997
r 50.04528 5 7 cbr 210 ------- 0 5.0 7.0 20 19964
+ 50.04536 5 7 cbr 210 ------- 0 5.0 7.0 54 19998
- 50.04536 5 7 cbr 210 ------- 0 5.0 7.0 27 19971
+ 50.0462 5 7 cbr 210 ------- 0 5.0 7.0 55 19999
r 50.04696 5 7 cbr 210 ------- 0 5.0 7.0 21 19965
+ 50.04704 5 7 cbr 210 ------- 0 5.0 7.0 56 20000
- 50.04704 5 7 cbr 210 ------- 0 5.0 7.0 28 19972
+ 50.04788 5 7 cbr 210 ------- 0 5.0 7.0 57 20001
r 50.04864 5 7 cbr 210 ------- 0 5.0 7.0 22 19966
+ 50.04872 5 7 cbr 210 ------- 0 5.0 7.0 58 20002
- 50.04872 5 7 cbr 210 ------- 0 5.0 7.0 29 19973
+ 50.04956 5 7 cbr 210 ------- 0 5.0 7.0 59 20003
r 50.05032 5 7 cbr 210 ------- 0 5.0 7.0 23 19967
+ 50.0504 5 7 cbr 210 ------- 0 5.0 7.0 60 20004
- 50.0504 5 7 cbr 210 ------- 0 5.0 7.0 30 19974
+ 50.05124 5 7 cbr 210 ------- 0 5.0 7.0 61 20005
r 50.052 5 7 cbr 210 ------- 0 5.0 7.0 24 19968
+ 50.05208 5 7 cbr 210 ------- 0 5.0 7.0 62 20006
- 50.05208 5 7 cbr 210 ------- 0 5.0 7.0 31 19975
+ 50.05292 5 7 cbr 210 ------- 0 5.0 7.0 63 20007
r 50.05368 5 7 cbr 210 ------- 0 5.0 7.0 25 19969
+ 50.05376 5 7 cbr 210 ------- 0 5.0 7.0 64 20008
- 50.05376 5 7 cbr 210 ------- 0 5.0 7.0 32 19976
+ 50.0546 5 7 cbr 210 ------- 0 5.0 7.0 65 20009
r 50.05536 5 7 cbr 210 ------- 0 5.0 7.0 26 19970
+ 50.05544 5 7 cbr 210 ------- 0 5.0 7.0 66 20010
- 50.05544 5 7 cbr 210 ------- 0 5.0 7.0 33 19977
+ 50.05628 5 7 cbr 210 ------- 0 5.0 7.0 67 20011
r 50.05704 5 7 cbr 210 ------- 0 5.0 7.0 27 19971
+ 50.05712 5 7 cbr 210 ------- 0 5.0 7.0 68 20012
- 50.05712 5 7 cbr 210 ------- 0 5.0 7.0 34 19978
+ 50.05796 5 7 cbr 210 ------- 0 5.0 7.0 69 20013
r 50.05872 5 7 cbr 210 ------- 0 5.0 7.0 28 19972
+ 50.0588 5 7 cbr 210 ------- 0 5.0 7.0 70 20014
- 50.0588 5 7 cbr 210 ------- 0 5.0 7.0 35 19979
+ 50.05964 5 7 cbr 210 ------- 0 5.0 7.0 71 20015
r 50.0604 5 7 cbr 210 ------- 0 5.0 7.0 29 19973
+ 50.06048 5 7 cbr 210 ------- 0 5.0 7.0 72 20016
- 50.06048 5 7 cbr 210 ------- 0 5.0 7.0 36 19980
+ 50.06132 5 7 cbr 210 ------- 0 5.0 7.0 73 20017
r 50.06208 5 7 cbr 210 ------- 0 5.0 7.0 30 19974
+ 50.06216 5 7 cbr 210 ------- 0 5.0 7.0 74 20018
- 50.06216 5 7 cbr 210 ------- 0 5.0 7.0 37 19981
+ 50.063 5 7 cbr 210 ------- 0 5.0 7.0 75 20019
r 50.06376 5 7 cbr 210 ------- 0 5.0 7.0 31 19975
+ 50.06384 5 7 cbr 210 ------- 0 5.0 7.0 76 20020
- 50.06384 5 7 cbr 210 ------- 0 5.0 7.0 38 19982
+ 50.06468 5 7 cbr 210 ------- 0 5.0 7.0 77 20021
r 50.06544 5 7 cbr 210 ------- 0 5.0 7.0 32 19976
+ 50.06552 5 7 cbr 210 ------- 0 5.0 7.0 78 20022
- 50.06552 5 7 cbr 210 ------- 0 5.0 7.0 39 19983
+ 50.06636 5 7 cbr 210 ------- 0 5.0 7.0 79 20023
r 50.06712 5 7 cbr 210 ------- 0 5.0 7.0 33 19977
+ 50.0672 5 7 cbr 210 ------- 0 5.0 7.0 80 20024
- 50.0672 5 7 cbr 210 ------- 0 5.0 7.0 40 19984
+ 50.06804 5 7 cbr 210 ------- 0 5.0 7.0 81 20025
r 50.0688 5 7 cbr 210 ------- 0 5.0 7.0 34 19978
+ 50.06888 5 7 cbr 210 ------- 0 5.0 7.0 82 20026
- 50.06888 5 7 cbr 210 ------- 0 5.0 7.0 41 19985
+ 50.06972 5 7 cbr 210 ------- 0 5.0 7.0 83 20027
r 50.07048 5 7 cbr 210 ------- 0 5.0 7.0 35 19979
+ 50.07056 5 7 cbr 210 ------- 0 5.0 7.0 84 20028
- 50.07056 5 7 cbr 210 ------- 0 5.0 7.0 42 19986
+ 50.0714 5 7 cbr 210 ------- 0 5.0 7.0 85 20029
r 50.07216 5 7 cbr 210 ------- 0 5.0 7.0 36 19980
+ 50.07224 5 7 cbr 210 ------- 0 5.0 7.0 86 20030
- 50.07224 5 7 cbr 210 ------- 0 5.0 7.0 43 19987
+ 50.07308 5 7 cbr 210 ------- 0 5.0 7.0 87 20031
r 50.07384 5 7 cbr 210 ------- 0 5.0 7.0 37 19981
+ 50.07392 5 7 cbr 210 ------- 0 5.0 7.0 88 20032
- 50.07392 5 7 cbr 210 ------- 0 5.0 7.0 44 19988
+ 50.07476 5 7 cbr 210 ------- 0 5.0 7.0 89 20033
r 50.07552 5 7 cbr 210 ------- 0 5.0 7.0 38 19982
+ 50.0756 5 7 cbr 210 ------- 0 5.0 7.0 90 20034
- 50.0756 5 7 cbr 210 ------- 0 5.0 7.0 45 19989
+ 50.07644 5 7 cbr 210 ------- 0 5.0 7.0 91 20035
r 50.0772 5 7 cbr 210 ------- 0 5.0 7.0 39 19983
+ 50.07728 5 7 cbr 210 ------- 0 5.0 7.0 92 20036
- 50.07728 5 7 cbr 210 ------- 0 5.0 7.0 46 19990
+ 50.07812 5 7 cbr 210 ------- 0 5.0 7.0 93 20037
r 50.07888 5 7 cbr 210 ------- 0 5.0 7.0 40 19984
+ 50.07896 5 7 cbr 210 ------- 0 5.0 7.0 94 20038
- 50.07896 5 7 cbr 210 ------- 0 5.0 7.0 47 19991
+ 50.0798 5 7 cbr 210 ------- 0 5.0 7.0 95 20039
r 50.08056 5 7 cbr 210 ------- 0 5.0 7.0 41 19985
+ 50.08064 5 7 cbr 210 ------- 0 5.0 7.0 96 20040
- 50.08064 5 7 cbr 210 ------- 0 5.0 7.0 48 19992
+ 50.08148 5 7 cbr 210 ------- 0 5.0 7.0 97 20041
r 50.08224 5 7 cbr 210 ------- 0 5.0 7.0 42 19986
+ 50.08232 5 7 cbr 210 ------- 0 5.0 7.0 98 20042
d 50.08232 5 7 cbr 210 ------- 0 5.0 7.0 98 20042
- 50.08232 5 7 cbr 210 ------- 0 5.0 7.0 49 19993
+ 50.08316 5 7 cbr 210 ------- 0 5.0 7.0 99 20043
r 50.08392 5 7 cbr 210 ------- 0 5.0 7.0 43 19987
+ 50.084 5 7 cbr 210 ------- 0 5.0 7.0 100 20044
d 50.084 5 7 cbr 210 ------- 0 5.0 7.0 100 20044
- 50.084 5 7 cbr 210 ------- 0 5.0 7.0 50 19994
+ 50.08484 5 7 cbr 210 ------- 0 5.0 7.0 101 20045
r 50.0856 5 7 cbr 210 ------- 0 5.0 7.0 44 19988
+ 50.08568 5 7 cbr 210 ------- 0 5.0 7.0 102 20046
d 50.08568 5 7 cbr 210 ------- 0 5.0 7.0 102 20046
- 50.08568 5 7 cbr 210 ------- 0 5.0 7.0 51 19995
+ 50.08652 5 7 cbr 210 ------- 0 5.0 7.0 103 20047
r 50.08728 5 7 cbr 210 ------- 0 5.0 7.0 45 19989
+ 50.08736 5 7 cbr 210 ------- 0 5.0 7.0 104 20048
d 50.08736 5 7 cbr 210 ------- 0 5.0 7.0 104 20048
- 50.08736 5 7 cbr 210 ------- 0 5.0 7.0 52 19996
+ 50.0882 5 7 cbr 210 ------- 0 5.0 7.0 105 20049
r 50.08896 5 7 cbr 210 ------- 0 5.0 7.0 46 19990
+ 50.08904 5 7 cbr 210 ------- 0 5.0 7.0 106 20050
d 50.08904 5 7 cbr 210 ------- 0 5.0 7.0 106 20050
- 50.08904 5 7 cbr 210 ------- 0 5.0 7.0 53 19997
+ 50.08988 5 7 cbr 210 ------- 0 5.0 7.0 107 20051
r 50.09064 5 7 cbr 210 ------- 0 5.0 7.0 47 19991
+ 50.09072 5 7 cbr 210 ------- 0 5.0 7.0 108 20052
d 50.09072 5 7 cbr 210 ------- 0 5.0 7.0 108 20052
- 50.09072 5 7 cbr 210 ------- 0 5.0 7.0 54 19998
+ 50.09156 5 7 cbr 210 ------- 0 5.0 7.0 109 20053
r 50.09232 5 7 cbr 210 ------- 0 5.0 7.0 48 19992
+ 50.0924 5 7 cbr 210 ------- 0 5.0 7.0 110 20054
d 50.0924 5 7 cbr 210 ------- 0 5.0 7.0 110 20054
- 50.0924 5 7 cbr 210 ------- 0 5.0 7.0 55 19999
+ 50.09324 5 7 cbr 210 ------- 0 5.0 7.0 111 20055
r 50.094 5 7 cbr 210 ------- 0 5.0 7.0 49 19993
+ 50.09408 5 7 cbr 210 ------- 0 5.0 7.0 112 20056
d 50.09408 5 7 cbr 210 ------- 0 5.0 7.0 112 20056
- 50.09408 5 7 cbr 210 ------- 0 5.0 7.0 56 20000
+ 50.09492 5 7 cbr 210 ------- 0 5.0 7.0 113 20057
r 50.09568 5 7 cbr 210 ------- 0 5.0 7.0 50 19994
+ 50.09576 5 7 cbr 210 ------- 0 5.0 7.0 114 20058
d 50.09576 5 7 cbr 210 ------- 0 5.0 7.0 114 20058
- 50.09576 5 7 cbr 210 ------- 0 5.0 7.0 57 20001
+ 50.0966 5 7 cbr 210 ------- 0 5.0 7.0 115 20059
r 50.09736 5 7 cbr 210 ------- 0 5.0 7.0 51 19995
+ 50.09744 5 7 cbr 210 ------- 0 5.0 7.0 116 20060
d 50.09744 5 7 cbr 210 ------- 0 5.0 7.0 116 20060
- 50.09744 5 7 cbr 210 ------- 0 5.0 7.0 58 20002
+ 50.09828 5 7 cbr 210 ------- 0 5.0 7.0 117 20061
r 50.09904 5 7 cbr 210 ------- 0 5.0 7.0 52 19996
+ 50.09912 5 7 cbr 210 ------- 0 5.0 7.0 118 20062
d 50.09912 5 7 cbr 210 ------- 0 5.0 7.0 118 20062
- 50.09912 5 7 cbr 210 ------- 0 5.0 7.0 59 20003
+ 50.09996 5 7 cbr 210 ------- 0 5.0 7.0 119 20063
r 50.10072 5 7 cbr 210 ------- 0 5.0 7.0 53 19997
+ 50.1008 5 7 cbr 210 ------- 0 5.0 7.0 120 20064
d 50.1008 5 7 cbr 210 ------- 0 5.0 7.0 120 20064
- 50.1008 5 7 cbr 210 ------- 0 5.0 7.0 60 20004
+ 50.10164 5 7 cbr 210 ------- 0 5.0 7.0 121 20065
r 50.1024 5 7 cbr 210 ------- 0 5.0 7.0 54 19998
+ 50.10248 5 7 cbr 210 ------- 0 5.0 7.0 122 20066
d 50.10248 5 7 cbr 210 ------- 0 5.0 7.0 122 20066
- 50.10248 5 7 cbr 210 ------- 0 5.0 7.0 61 20005
+ 50.10332 5 7 cbr 210 ------- 0 5.0 7.0 123 20067
r 50.10408 5 7 cbr 210 ------- 0 5.0 7.0 55 19999
+ 50.10416 5 7 cbr 210 ------- 0 5.0 7.0 124 20068
d 50.10416 5 7 cbr 210 ------- 0 5.0 7.0 124 20068
- 50.10416 5 7 cbr 210 ------- 0 5.0 7.0 62 20006
+ 50.105 5 7 cbr 210 ------- 0 5.0 7.0 125 20069
r 50.10576 5 7 cbr 210 ------- 0 5.0 7.0 56 20000
+ 50.10584 5 7 cbr 210 ------- 0 5.0 7.0 126 20070
d 50.10584 5 7 cbr 210 ------- 0 5.0 7.0 126 20070
- 50.10584 5 7 cbr 210 ------- 0 5.0 7.0 63 20007
+ 50.10668 5 7 cbr 210 ------- 0 5.0 7.0 127 20071
r 50.10744 5 7 cbr 210 ------- 0 5.0 7.0 57 20001
+ 50.10752 5 7 cbr 210 ------- 0 5.0 7.0 128 20072
d 50.10752 5 7 cbr 210 ------- 0 5.0 7.0 128 20072
- 50.10752 5 7 cbr 210 ------- 0 5.0 7.0 64 20008
+ 50.10836 5 7 cbr 210 ------- 0 5.0 7.0 129 20073
r 50.10912 5 7 cbr 210 ------- 0 5.0 7.0 58 20002
+ 50.1092 5 7 cbr 210 ------- 0 5.0 7.0 130 20074
d 50.1092 5 7 cbr 210 ------- 0 5.0 7.0 130 20074
- 50.1092 5 7 cbr 210 ------- 0 5.0 7.0 65 20009
+ 50.11004 5 7 cbr 210 ------- 0 5.0 7.0 131 20075
r 50.1108 5 7 cbr 210 ------- 0 5.0 7.0 59 20003
+ 50.11088 5 7 cbr 210 ------- 0 5.0 7.0 132 20076
d 50.11088 5 7 cbr 210 ------- 0 5.0 7.0 132 20076
- 50.11088 5 7 cbr 210 ------- 0 5.0 7.0 66 20010
+ 50.11172 5 7 cbr 210 ------- 0 5.0 7.0 133 20077
r 50.11248 5 7 cbr 210 ------- 0 5.0 7.0 60 20004
+ 50.11256 5 7 cbr 210 ------- 0 5.0 7.0 134 20078
d 50.11256 5 7 cbr 210 ------- 0 5.0 7.0 134 20078
- 50.11256 5 7 cbr 210 ------- 0 5.0 7.0 67 20011
+ 50.1134 5 7 cbr 210 ------- 0 5.0 7.0 135 20079
r 50.11416 5 7 cbr 210 ------- 0 5.0 7.0 61 20005
+ 50.11424 5 7 cbr 210 ------- 0 5.0 7.0 136 20080
d 50.11424 5 7 cbr 210 ------- 0 5.0 7.0 136 20080
- 50.11424 5 7 cbr 210 ------- 0 5.0 7.0 68 20012
+ 50.11508 5 7 cbr 210 ------- 0 5.0 7.0 137 20081
r 50.11584 5 7 cbr 210 ------- 0 5.0 7.0 62 20006
+ 50.11592 5 7 cbr 210 ------- 0 5.0 7.0 138 20082
d 50.11592 5 7 cbr 210 ------- 0 5.0 7.0 138 20082
- 50.11592 5 7 cbr 210 ------- 0 5.0 7.0 69 20013
+ 50.11676 5 7 cbr 210 ------- 0 5.0 7.0 139 20083
r 50.11752 5 7 cbr 210 ------- 0 5.0 7.0 63 20007
+ 50.1176 5 7 cbr 210 ------- 0 5.0 7.0 140 20084
d 50.1176 5 7 cbr 210 ------- 0 5.0 7.0 140 20084
- 50.1176 5 7 cbr 210 ------- 0 5.0 7.0 70 20014
+ 50.11844 5 7 cbr 210 ------- 0 5.0 7.0 141 20085
r 50.1192 5 7 cbr 210 ------- 0 5.0 7.0 64 20008
+ 50.11928 5 7 cbr 210 ------- 0 5.0 7.0 142 20086
d 50.11928 5 7 cbr 210 ------- 0 5.0 7.0 142 20086
- 50.11928 5 7 cbr 210 ------- 0 5.0 7.0 71 20015
+ 50.12012 5 7 cbr 210 ------- 0 5.0 7.0 143 20087
r 50.12088 5 7 cbr 210 ------- 0 5.0 7.0 65 20009
+ 50.12096 5 7 cbr 210 ------- 0 5.0 7.0 144 20088
d 50.12096 5 7 cbr 210 ------- 0 5.0 7.0 144 20088
- 50.12096 5 7 cbr 210 ------- 0 5.0 7.0 72 20016
+ 50.1218 5 7 cbr 210 ------- 0 5.0 7.0 145 20089
r 50.12256 5 7 cbr 210 ------- 0 5.0 7.0 66 20010
+ 50.12264 5 7 cbr 210 ------- 0 5.0 7.0 146 20090
d 50.12264 5 7 cbr 210 ------- 0 5.0 7.0 146 20090
- 50.12264 5 7 cbr 210 ------- 0 5.0 7.0 73 20017
+ 50.12348 5 7 cbr 210 ------- 0 5.0 7.0 147 20091
r 50.12424 5 7 cbr 210 ------- 0 5.0 7.0 67 20011
+ 50.12432 5 7 cbr 210 ------- 0 5.0 7.0 148 20092
d 50.12432 5 7 cbr 210 ------- 0 5.0 7.0 148 20092
- 50.12432 5 7 cbr 210 ------- 0 5.0 7.0 74 20018
+ 50.12516 5 7 cbr 210 ------- 0 5.0 7.0 149 20093
r 50.12592 5 7 cbr 210 ------- 0 5.0 7.0 68 20012
+ 50.126 5 7 cbr 210 ------- 0 5.0 7.0 150 20094
d 50.126 5 7 cbr 210 ------- 0 5.0 7.0 150 20094
- 50.126 5 7 cbr 210 ------- 0 5.0 7.0 75 20019
+ 50.12684 5 7 cbr 210 ------- 0 5.0 7.0 151 20095
r 50.1276 5 7 cbr 210 ------- 0 5.0 7.0 69 20013
+ 50.12768 5 7 cbr 210 ------- 0 5.0 7.0 152 20096
d 50.12768 5 7 cbr 210 ------- 0 5.0 7.0 152 20096
- 50.12768 5 7 cbr 210 ------- 0 5.0 7.0 76 20020
+ 50.12852 5 7 cbr 210 ------- 0 5.0 7.0 153 20097
r 50.12928 5 7 cbr 210 ------- 0 5.0 7.0 70 20014
+ 50.12936 5 7 cbr 210 ------- 0 5.0 7.0 154 20098
d 50.12936 5 7 cbr 210 ------- 0 5.0 7.0 154 20098
- 50.12936 5 7 cbr 210 ------- 0 5.0 7.0 77 20021
+ 50.1302 5 7 cbr 210 ------- 0 5.0 7.0 155 20099
r 50.13096 5 7 cbr 210 ------- 0 5.0 7.0 71 20015
+ 50.13104 5 7 cbr 210 ------- 0 5.0 7.0 156 20100
d 50.13104 5 7 cbr 210 ------- 0 5.0 7.0 156 20100
- 50.13104 5 7 cbr 210 ------- 0 5.0 7.0 78 20022
+ 50.13188 5 7 cbr 210 ------- 0 5.0 7.0 157 20101
r 50.13264 5 7 cbr 210 ------- 0 5.0 7.0 72 20016
+ 50.13272 5 7 cbr 210 ------- 0 5.0 7.0 158 20102
d 50.13272 5 7 cbr 210 ------- 0 5.0 7.0 158 20102
- 50.13272 5 7 cbr 210 ------- 0 5.0 7.0 79 20023
+ 50.13356 5 7 cbr 210 ------- 0 5.0 7.0 159 20103
r 50.13432 5 7 cbr 210 ------- 0 5.0 7.0 73 20017
+ 50.1344 5 7 cbr 210 ------- 0 5.0 7.0 160 20104
d 50.1344 5 7 cbr 210 ------- 0 5.0 7.0 160 20104
- 50.1344 5 7 cbr 210 ------- 0 5.0 7.0 80 20024
+ 50.13524 5 7 cbr 210 ------- 0 5.0 7.0 161 20105
r 50.136 5 7 cbr 210 ------- 0 5.0 7.0 74 20018
+ 50.13608 5 7 cbr 210 ------- 0 5.0 7.0 162 20106
d 50.13608 5 7 cbr 210 ------- 0 5.0 7.0 162 20106
- 50.13608 5 7 cbr 210 ------- 0 5.0 7.0 81 20025
+ 50.13692 5 7 cbr 210 ------- 0 5.0 7.0 163 20107
r 50.13768 5 7 cbr 210 ------- 0 5.0 7.0 75 20019
+ 50.13776 5 7 cbr 210 ------- 0 5.0 7.0 164 20108
d 50.13776 5 7 cbr 210 ------- 0 5.0 7.0 164 20108
- 50.13776 5 7 cbr 210 ------- 0 5.0 7.0 82 20026
+ 50.1386 5 7 cbr 210 ------- 0 5.0 7.0 165 20109
r 50.13936 5 7 cbr 210 ------- 0 5.0 7.0 76 20020
+ 50.13944 5 7 cbr 210 ------- 0 5.0 7.0 166 20110
d 50.13944 5 7 cbr 210 ------- 0 5.0 7.0 166 20110
- 50.13944 5 7 cbr 210 ------- 0 5.0 7.0 83 20027
+ 50.14028 5 7 cbr 210 ------- 0 5.0 7.0 167 20111
r 50.14104 5 7 cbr 210 ------- 0 5.0 7.0 77 20021
+ 50.14112 5 7 cbr 210 ------- 0 5.0 7.0 168 20112
d 50.14112 5 7 cbr 210 ------- 0 5.0 7.0 168 20112
- 50.14112 5 7 cbr 210 ------- 0 5.0 7.0 84 20028
+ 50.14196 5 7 cbr 210 ------- 0 5.0 7.0 169 20113
r 50.14272 5 7 cbr 210 ------- 0 5.0 7.0 78 20022
+ 50.1428 5 7 cbr 210 ------- 0 5.0 7.0 170 20114
d 50.1428 5 7 cbr 210 ------- 0 5.0 7.0 170 20114
- 50.1428 5 7 cbr 210 ------- 0 5.0 7.0 85 20029
+ 50.14364 5 7 cbr 210 ------- 0 5.0 7.0 171 20115
r 50.1444 5 7 cbr 210 ------- 0 5.0 7.0 79 20023
+ 50.14448 5 7 cbr 210 ------- 0 5.0 7.0 172 20116
d 50.14448 5 7 cbr 210 ------- 0 5.0 7.0 172 20116
- 50.14448 5 7 cbr 210 ------- 0 5.0 7.0 86 20030
+ 50.14532 5 7 cbr 210 ------- 0 5.0 7.0 173 20117
r 50.14608 5 7 cbr 210 ------- 0 5.0 7.0 80 20024
+ 50.14616 5 7 cbr 210 ------- 0 5.0 7.0 174 20118
d 50.14616 5 7 cbr 210 ------- 0 5.0 7.0 174 20118
- 50.14616 5 7 cbr 210 ------- 0 5.0 7.0 87 20031
+ 50.147 5 7 cbr 210 ------- 0 5.0 7.0 175 20119
r 50.14776 5 7 cbr 210 ------- 0 5.0 7.0 81 20025
+ 50.14784 5 7 cbr 210 ------- 0 5.0 7.0 176 20120
d 50.14784 5 7 cbr 210 ------- 0 5.0 7.0 176 20120
- 50.14784 5 7 cbr 210 ------- 0 5.0 7.0 88 20032
+ 50.14868 5 7 cbr 210 ------- 0 5.0 7.0 177 20121
r 50.14944 5 7 cbr 210 ------- 0 5.0 7.0 82 20026
+ 50.14952 5 7 cbr 210 ------- 0 5.0 7.0 178 20122
d 50.14952 5 7 cbr 210 ------- 0 5.0 7.0 178 20122
- 50.14952 5 7 cbr 210 ------- 0 5.0 7.0 89 20033
+ 50.15036 5 7 cbr 210 ------- 0 5.0 7.0 179 20123
r 50.15112 5 7 cbr 210 ------- 0 5.0 7.0 83 20027
+ 50.1512 5 7 cbr 210 ------- 0 5.0 7.0 180 20124
d 50.1512 5 7 cbr 210 ------- 0 5.0 7.0 180 20124
- 50.1512 5 7 cbr 210 ------- 0 5.0 7.0 90 20034
+ 50.15204 5 7 cbr 210 ------- 0 5.0 7.0 181 20125
r 50.1528 5 7 cbr 210 ------- 0 5.0 7.0 84 20028
+ 50.15288 5 7 cbr 210 ------- 0 5.0 7.0 182 20126
d 50.15288 5 7 cbr 210 ------- 0 5.0 7.0 182 20126
- 50.15288 5 7 cbr 210 ------- 0 5.0 7.0 91 20035
+ 50.15372 5 7 cbr 210 ------- 0 5.0 7.0 183 20127
r 50.15448 5 7 cbr 210 ------- 0 5.0 7.0 85 20029
+ 50.15456 5 7 cbr 210 ------- 0 5.0 7.0 184 20128
d 50.15456 5 7 cbr 210 ------- 0 5.0 7.0 184 20128
- 50.15456 5 7 cbr 210 ------- 0 5.0 7.0 92 20036
+ 50.1554 5 7 cbr 210 ------- 0 5.0 7.0 185 20129
r 50.15616 5 7 cbr 210 ------- 0 5.0 7.0 86 20030
+ 50.15624 5 7 cbr 210 ------- 0 5.0 7.0 186 20130
d 50.15624 5 7 cbr 210 ------- 0 5.0 7.0 186 20130
- 50.15624 5 7 cbr 210 ------- 0 5.0 7.0 93 20037
+ 50.15708 5 7 cbr 210 ------- 0 5.0 7.0 187 20131
r 50.15784 5 7 cbr 210 ------- 0 5.0 7.0 87 20031
+ 50.15792 5 7 cbr 210 ------- 0 5.0 7.0 188 20132
d 50.15792 5 7 cbr 210 ------- 0 5.0 7.0 188 20132
- 50.15792 5 7 cbr 210 ------- 0 5.0 7.0 94 20038
+ 50.15876 5 7 cbr 210 ------- 0 5.0 7.0 189 20133
r 50.15952 5 7 cbr 210 ------- 0 5.0 7.0 88 20032
+ 50.1596 5 7 cbr 210 ------- 0 5.0 7.0 190 20134
d 50.1596 5 7 cbr 210 ------- 0 5.0 7.0 190 20134
- 50.1596 5 7 cbr 210 ------- 0 5.0 7.0 95 20039
+ 50.16044 5 7 cbr 210 ------- 0 5.0 7.0 191 20135
r 50.1612 5 7 cbr 210 ------- 0 5.0 7.0 89 20033
+ 50.16128 5 7 cbr 210 ------- 0 5.0 7.0 192 20136
d 50.16128 5 7 cbr 210 ------- 0 5.0 7.0 192 20136
- 50.16128 5 7 cbr 210 ------- 0 5.0 7.0 96 20040
+ 50.16212 5 7 cbr 210 ------- 0 5.0 7.0 193 20137
r 50.16288 5 7 cbr 210 ------- 0 5.0 7.0 90 20034
+ 50.16296 5 7 cbr 210 ------- 0 5.0 7.0 194 20138
d 50.16296 5 7 cbr 210 ------- 0 5.0 7.0 194 20138
- 50.16296 5 7 cbr 210 ------- 0 5.0 7.0 97 20041
+ 50.1638 5 7 cbr 210 ------- 0 5.0 7.0 195 20139
r 50.16456 5 7 cbr 210 ------- 0 5.0 7.0 91 20035
+ 50.16464 5 7 cbr 210 ------- 0 5.0 7.0 196 20140
d 50.16464 5 7 cbr 210 ------- 0 5.0 7.0 196 20140
- 50.16464 5 7 cbr 210 ------- 0 5.0 7.0 99 20043
+ 50.16548 5 7 cbr 210 ------- 0 5.0 7.0 197 20141
r 50.16624 5 7 cbr 210 ------- 0 5.0 7.0 92 20036
+ 50.16632 5 7 cbr 210 ------- 0 5.0 7.0 198 20142
d 50.16632 5 7 cbr 210 ------- 0 5.0 7.0 198 20142
- 50.16632 5 7 cbr 210 ------- 0 5.0 7.0 101 20045
+ 50.16716 5 7 cbr 210 ------- 0 5.0 7.0 199 20143
r 50.16792 5 7 cbr 210 ------- 0 5.0 7.0 93 20037
+ 50.168 5 7 cbr 210 ------- 0 5.0 7.0 200 20144
d 50.168 5 7 cbr 210 ------- 0 5.0 7.0 200 20144
- 50.168 5 7 cbr 210 ------- 0 5.0 7.0 103 20047
+ 50.16884 5 7 cbr 210 ------- 0 5.0 7.0 201 20145
r 50.1696 5 7 cbr 210 ------- 0 5.0 7.0 94 20038
+ 50.16968 5 7 cbr 210 ------- 0 5.0 7.0 202 20146
d 50.16968 5 7 cbr 210 ------- 0 5.0 7.0 202 20146
- 50.16968 5 7 cbr 210 ------- 0 5.0 7.0 105 20049
+ 50.17052 5 7 cbr 210 ------- 0 5.0 7.0 203 20147
r 50.17128 5 7 cbr 210 ------- 0 5.0 7.0 95 20039
+ 50.17136 5 7 cbr 210 ------- 0 5.0 7.0 204 20148
d 50.17136 5 7 cbr 210 ------- 0 5.0 7.0 204 20148
- 50.17136 5 7 cbr 210 ------- 0 5.0 7.0 107 20051
+ 50.1722 5 7 cbr 210 ------- 0 5.0 7.0 205 20149
r 50.17296 5 7 cbr 210 ------- 0 5.0 7.0 96 20040
+ 50.17304 5 7 cbr 210 ------- 0 5.0 7.0 206 20150
d 50.17304 5 7 cbr 210 ------- 0 5.0 7.0 206 20150
- 50.17304 5 7 cbr 210 ------- 0 5.0 7.0 109 20053
+ 50.17388 5 7 cbr 210 ------- 0 5.0 7.0 207 20151
r 50.17464 5 7 cbr 210 ------- 0 5.0 7.0 97 20041
+ 50.17472 5 7 cbr 210 ------- 0 5.0 7.0 208 20152
d 50.17472 5 7 cbr 210 ------- 0 5.0 7.0 208 20152
- 50.17472 5 7 cbr 210 ------- 0 5.0 7.0 111 20055
+ 50.17556 5 7 cbr 210 ------- 0 5.0 7.0 209 20153
r 50.17632 5 7 cbr 210 ------- 0 5.0 7.0 99 20043
+ 50.1764 5 7 cbr 210 ------- 0 5.0 7.0 210 20154
d 50.1764 5 7 cbr 210 ------- 0 5.0 7.0 210 20154
- 50.1764 5 7 cbr 210 ------- 0 5.0 7.0 113 20057
+ 50.17724 5 7 cbr 210 ------- 0 5.0 7.0 211 20155
r 50.178 5 7 cbr 210 ------- 0 5.0 7.0 101 20045
+ 50.17808 5 7 cbr 210 ------- 0 5.0 7.0 212 20156
d 50.17808 5 7 cbr 210 ------- 0 5.0 7.0 212 20156
- 50.17808 5 7 cbr 210 ------- 0 5.0 7.0 115 20059
+ 50.17892 5 7 cbr 210 ------- 0 5.0 7.0 213 20157
r 50.17968 5 7 cbr 210 ------- 0 5.0 7.0 103 20047
+ 50.17976 5 7 cbr 210 ------- 0 5.0 7.0 214 20158
d 50.17976 5 7 cbr 210 ------- 0 5.0 7.0 214 20158
- 50.17976 5 7 cbr 210 ------- 0 5.0 7.0 117 20061
+ 50.1806 5 7 cbr 210 ------- 0 5.0 7.0 215 20159
r 50.18136 5 7 cbr 210 ------- 0 5.0 7.0 105 20049
+ 50.18144 5 7 cbr 210 ------- 0 5.0 7.0 216 20160
d 50.18144 5 7 cbr 210 ------- 0 5.0 7.0 216 20160
- 50.18144 5 7 cbr 210 ------- 0 5.0 7.0 119 20063
+ 50.18228 5 7 cbr 210 ------- 0 5.0 7.0 217 20161
r 50.18304 5 7 cbr 210 ------- 0 5.0 7.0 107 20051
+ 50.18312 5 7 cbr 210 ------- 0 5.0 7.0 218 20162
d 50.18312 5 7 cbr 210 ------- 0 5.0 7.0 218 20162
- 50.18312 5 7 cbr 210 ------- 0 5.0 7.0 121 20065
+ 50.18396 5 7 cbr 210 ------- 0 5.0 7.0 219 20163
r 50.18472 5 7 cbr 210 ------- 0 5.0 7.0 109 20053
+ 50.1848 5 7 cbr 210 ------- 0 5.0 7.0 220 20164
d 50.1848 5 7 cbr 210 ------- 0 5.0 7.0 220 20164
- 50.1848 5 7 cbr 210 ------- 0 5.0 7.0 123 20067
+ 50.18564 5 7 cbr 210 ------- 0 5.0 7.0 221 20165
r 50.1864 5 7 cbr 210 ------- 0 5.0 7.0 111 20055
+ 50.18648 5 7 cbr 210 ------- 0 5.0 7.0 222 20166
d 50.18648 5 7 cbr 210 ------- 0 5.0 7.0 222 20166
- 50.18648 5 7 cbr 210 ------- 0 5.0 7.0 125 20069
+ 50.18732 5 7 cbr 210 ------- 0 5.0 7.0 223 20167
r 50.18808 5 7 cbr 210 ------- 0 5.0 7.0 113 20057
+ 50.18816 5 7 cbr 210 ------- 0 5.0 7.0 224 20168
d 50.18816 5 7 cbr 210 ------- 0 5.0 7.0 224 20168
- 50.18816 5 7 cbr 210 ------- 0 5.0 7.0 127 20071
+ 50.189 5 7 cbr 210 ------- 0 5.0 7.0 225 20169
r 50.18976 5 7 cbr 210 ------- 0 5.0 7.0 115 20059
+ 50.18984 5 7 cbr 210 ------- 0 5.0 7.0 226 20170
d 50.18984 5 7 cbr 210 ------- 0 5.0 7.0 226 20170
- 50.18984 5 7 cbr 210 ------- 0 5.0 7.0 129 20073
+ 50.19068 5 7 cbr 210 ------- 0 5.0 7.0 227 20171
r 50.19144 5 7 cbr 210 ------- 0 5.0 7.0 117 20061
+ 50.19152 5 7 cbr 210 ------- 0 5.0 7.0 228 20172
d 50.19152 5 7 cbr 210 ------- 0 5.0 7.0 228 20172
- 50.19152 5 7 cbr 210 ------- 0 5.0 7.0 131 20075
+ 50.19236 5 7 cbr 210 ------- 0 5.0 7.0 229 20173
r 50.19312 5 7 cbr 210 ------- 0 5.0 7.0 119 20063
+ 50.1932 5 7 cbr 210 ------- 0 5.0 7.0 230 20174
d 50.1932 5 7 cbr 210 ------- 0 5.0 7.0 230 20174
- 50.1932 5 7 cbr 210 ------- 0 5.0 7.0 133 20077
+ 50.19404 5 7 cbr 210 ------- 0 5.0 7.0 231 20175
r 50.1948 5 7 cbr 210 ------- 0 5.0 7.0 121 20065
+ 50.19488 5 7 cbr 210 ------- 0 5.0 7.0 232 20176
d 50.19488 5 7 cbr 210 ------- 0 5.0 7.0 232 20176
- 50.19488 5 7 cbr 210 ------- 0 5.0 7.0 135 20079
+ 50.19572 5 7 cbr 210 ------- 0 5.0 7.0 233 20177
r 50.19648 5 7 cbr 210 ------- 0 5.0 7.0 123 20067
+ 50.19656 5 7 cbr 210 ------- 0 5.0 7.0 234 20178
d 50.19656 5 7 cbr 210 ------- 0 5.0 7.0 234 20178
- 50.19656 5 7 cbr 210 ------- 0 5.0 7.0 137 20081
+ 50.1974 5 7 cbr 210 ------- 0 5.0 7.0 235 20179
r 50.19816 5 7 cbr 210 ------- 0 5.0 7.0 125 20069
+ 50.19824 5 7 cbr 210 ------- 0 5.0 7.0 236 20180
d 50.19824 5 7 cbr 210 ------- 0 5.0 7.0 236 20180
- 50.19824 5 7 cbr 210 ------- 0 5.0 7.0 139 20083
+ 50.19908 5 7 cbr 210 ------- 0 5.0 7.0 237 20181
r 50.19984 5 7 cbr 210 ------- 0 5.0 7.0 127 20071
+ 50.19992 5 7 cbr 210 ------- 0 5.0 7.0 238 20182
d 50.19992 5 7 cbr 210 ------- 0 5.0 7.0 238 20182
- 50.19992 5 7 cbr 210 ------- 0 5.0 7.0 141 20085
+ 50.20076 5 7 cbr 210 ------- 0 5.0 7.0 239 20183
r 50.20152 5 7 cbr 210 ------- 0 5.0 7.0 129 20073
+ 50.2016 5 7 cbr 210 ------- 0 5.0 7.0 240 20184
d 50.2016 5 7 cbr 210 ------- 0 5.0 7.0 240 20184
- 50.2016 5 7 cbr 210 ------- 0 5.0 7.0 143 20087
+ 50.20244 5 7 cbr 210 ------- 0 5.0 7.0 241 20185
r 50.2032 5 7 cbr 210 ------- 0 5.0 7.0 131 20075
+ 50.20328 5 7 cbr 210 ------- 0 5.0 7.0 242 20186
d 50.20328 5 7 cbr 210 ------- 0 5.0 7.0 242 20186
- 50.20328 5 7 cbr 210 ------- 0 5.0 7.0 145 20089
+ 50.20412 5 7 cbr 210 ------- 0 5.0 7.0 243 20187
r 50.20488 5 7 cbr 210 ------- 0 5.0 7.0 133 20077
+ 50.20496 5 7 cbr 210 ------- 0 5.0 7.0 244 20188
d 50.20496 5 7 cbr 210 ------- 0 5.0 7.0 244 20188
- 50.20496 5 7 cbr 210 ------- 0 5.0 7.0 147 20091
+ 50.2058 5 7 cbr 210 ------- 0 5.0 7.0 245 20189
r 50.20656 5 7 cbr 210 ------- 0 5.0 7.0 135 20079
+ 50.20664 5 7 cbr 210 ------- 0 5.0 7.0 246 20190
d 50.20664 5 7 cbr 210 ------- 0 5.0 7.0 246 20190
- 50.20664 5 7 cbr 210 ------- 0 5.0 7.0 149 20093
+ 50.20748 5 7 cbr 210 ------- 0 5.0 7.0 247 20191
r 50.20824 5 7 cbr 210 ------- 0 5.0 7.0 137 20081
+ 50.20832 5 7 cbr 210 ------- 0 5.0 7.0 248 20192
d 50.20832 5 7 cbr 210 ------- 0 5.0 7.0 248 20192
- 50.20832 5 7 cbr 210 ------- 0 5.0 7.0 151 20095
+ 50.20916 5 7 cbr 210 ------- 0 5.0 7.0 249 20193
r 50.20992 5 7 cbr 210 ------- 0 5.0 7.0 139 20083
+ 50.21 5 7 cbr 210 ------- 0 5.0 7.0 250 20194
d 50.21 5 7 cbr 210 ------- 0 5.0 7.0 250 20194
- 50.21 5 7 cbr 210 ------- 0 5.0 7.0 153 20097
+ 50.21084 5 7 cbr 210 ------- 0 5.0 7.0 251 20195
r 50.2116 5 7 cbr 210 ------- 0 5.0 7.0 141 20085
+ 50.21168 5 7 cbr 210 ------- 0 5.0 7.0 252 20196
d 50.21168 5 7 cbr 210 ------- 0 5.0 7.0 252 20196
- 50.21168 5 7 cbr 210 ------- 0 5.0 7.0 155 20099
+ 50.21252 5 7 cbr 210 ------- 0 5.0 7.0 253 20197
r 50.21328 5 7 cbr 210 ------- 0 5.0 7.0 143 20087
+ 50.21336 5 7 cbr 210 ------- 0 5.0 7.0 254 20198
d 50.21336 5 7 cbr 210 ------- 0 5.0 7.0 254 20198
- 50.21336 5 7 cbr 210 ------- 0 5.0 7.0 157 20101
+ 50.2142 5 7 cbr 210 ------- 0 5.0 7.0 255 20199
r 50.21496 5 7 cbr 210 ------- 0 5.0 7.0 145 20089
+ 50.21504 5 7 cbr 210 ------- 0 5.0 7.0 256 20200
d 50.21504 5 7 cbr 210 ------- 0 5.0 7.0 256 20200
- 50.21504 5 7 cbr 210 ------- 0 5.0 7.0 159 20103
+ 50.21588 5 7 cbr 210 ------- 0 5.0 7.0 257 20201
r 50.21664 5 7 cbr 210 ------- 0 5.0 7.0 147 20091
+ 50.21672 5 7 cbr 210 ------- 0 5.0 7.0 258 20202
d 50.21672 5 7 cbr 210 ------- 0 5.0 7.0 258 20202
- 50.21672 5 7 cbr 210 ------- 0 5.0 7.0 161 20105
+ 50.21756 5 7 cbr 210 ------- 0 5.0 7.0 259 20203
r 50.21832 5 7 cbr 210 ------- 0 5.0 7.0 149 20093
+ 50.2184 5 7 cbr 210 ------- 0 5.0 7.0 260 20204
d 50.2184 5 7 cbr 210 ------- 0 5.0 7.0 260 20204