+ 30 3 7 cbr 210 ------- 0 3.0 7.0 0 5062
- 30 3 7 cbr 210 ------- 0 3.0 7.0 0 5062
+ 30.00168 3 7 cbr 210 ------- 0 3.0 7.0 1 5063
- 30.00168 3 7 cbr 210 ------- 0 3.0 7.0 1 5063
+ 30.00336 3 7 cbr 210 ------- 0 3.0 7.0 2 5064
- 30.00336 3 7 cbr 210 ------- 0 3.0 7.0 2 5064
+ 30.00504 3 7 cbr 210 ------- 0 3.0 7.0 3 5065
- 30.00504 3 7 cbr 210 ------- 0 3.0 7.0 3 5065
+ 30.00672 3 7 cbr 210 ------- 0 3.0 7.0 4 5066
- 30.00672 3 7 cbr 210 ------- 0 3.0 7.0 4 5066
+ 30.0084 3 7 cbr 210 ------- 0 3.0 7.0 5 5067
- 30.0084 3 7 cbr 210 ------- 0 3.0 7.0 5 5067
+ 30.01008 3 7 cbr 210 ------- 0 3.0 7.0 6 5068
- 30.01008 3 7 cbr 210 ------- 0 3.0 7.0 6 5068
r 30.01168 3 7 cbr 210 ------- 0 3.0 7.0 0 5062
+ 30.01176 3 7 cbr 210 ------- 0 3.0 7.0 7 5069
- 30.01176 3 7 cbr 210 ------- 0 3.0 7.0 7 5069
r 30.01336 3 7 cbr 210 ------- 0 3.0 7.0 1 5063
+ 30.01344 3 7 cbr 210 ------- 0 3.0 7.0 8 5070
- 30.01344 3 7 cbr 210 ------- 0 3.0 7.0 8 5070
r 30.01504 3 7 cbr 210 ------- 0 3.0 7.0 2 5064
+ 30.01512 3 7 cbr 210 ------- 0 3.0 7.0 9 5071
- 30.01512 3 7 cbr 210 ------- 0 3.0 7.0 9 5071
r 30.01672 3 7 cbr 210 ------- 0 3.0 7.0 3 5065
+ 30.0168 3 7 cbr 210 ------- 0 3.0 7.0 10 5072
- 30.0168 3 7 cbr 210 ------- 0 3.0 7.0 10 5072
r 30.0184 3 7 cbr 210 ------- 0 3.0 7.0 4 5066
+ 30.01848 3 7 cbr 210 ------- 0 3.0 7.0 11 5073
- 30.01848 3 7 cbr 210 ------- 0 3.0 7.0 11 5073
r 30.02008 3 7 cbr 210 ------- 0 3.0 7.0 5 5067
+ 30.02016 3 7 cbr 210 ------- 0 3.0 7.0 12 5074
- 30.02016 3 7 cbr 210 ------- 0 3.0 7.0 12 5074
r 30.02176 3 7 cbr 210 ------- 0 3.0 7.0 6 5068
+ 30.02184 3 7 cbr 210 ------- 0 3.0 7.0 13 5075
- 30.02184 3 7 cbr 210 ------- 0 3.0 7.0 13 5075
r 30.02344 3 7 cbr 210 ------- 0 3.0 7.0 7 5069
+ 30.02352 3 7 cbr 210 ------- 0 3.0 7.0 14 5076
- 30.02352 3 7 cbr 210 ------- 0 3.0 7.0 14 5076
r 30.02512 3 7 cbr 210 ------- 0 3.0 7.0 8 5070
+ 30.0252 3 7 cbr 210 ------- 0 3.0 7.0 15 5077
- 30.0252 3 7 cbr 210 ------- 0 3.0 7.0 15 5077
r 30.0268 3 7 cbr 210 ------- 0 3.0 7.0 9 5071
+ 30.02688 3 7 cbr 210 ------- 0 3.0 7.0 16 5078
- 30.02688 3 7 cbr 210 ------- 0 3.0 7.0 16 5078
r 30.02848 3 7 cbr 210 ------- 0 3.0 7.0 10 5072
+ 30.02856 3 7 cbr 210 ------- 0 3.0 7.0 17 5079
- 30.02856 3 7 cbr 210 ------- 0 3.0 7.0 17 5079
r 30.03016 3 7 cbr 210 ------- 0 3.0 7.0 11 5073
+ 30.03024 3 7 cbr 210 ------- 0 3.0 7.0 18 5080
- 30.03024 3 7 cbr 210 ------- 0 3.0 7.0 18 5080
r 30.03184 3 7 cbr 210 ------- 0 3.0 7.0 12 5074
+ 30.03192 3 7 cbr 210 ------- 0 3.0 7.0 19 5081
- 30.03192 3 7 cbr 210 ------- 0 3.0 7.0 19 5081
r 30.03352 3 7 cbr 210 ------- 0 3.0 7.0 13 5075
+ 30.0336 3 7 cbr 210 ------- 0 3.0 7.0 20 5082
- 30.0336 3 7 cbr 210 ------- 0 3.0 7.0 20 5082
r 30.0352 3 7 cbr 210 ------- 0 3.0 7.0 14 5076
+ 30.03528 3 7 cbr 210 ------- 0 3.0 7.0 21 5083
- 30.03528 3 7 cbr 210 ------- 0 3.0 7.0 21 5083
r 30.03688 3 7 cbr 210 ------- 0 3.0 7.0 15 5077
+ 30.03696 3 7 cbr 210 ------- 0 3.0 7.0 22 5084
- 30.03696 3 7 cbr 210 ------- 0 3.0 7.0 22 5084
r 30.03856 3 7 cbr 210 ------- 0 3.0 7.0 16 5078
+ 30.03864 3 7 cbr 210 ------- 0 3.0 7.0 23 5085
- 30.03864 3 7 cbr 210 ------- 0 3.0 7.0 23 5085
r 30.04024 3 7 cbr 210 ------- 0 3.0 7.0 17 5079
+ 30.04032 3 7 cbr 210 ------- 0 3.0 7.0 24 5086
- 30.04032 3 7 cbr 210 ------- 0 3.0 7.0 24 5086
r 30.04192 3 7 cbr 210 ------- 0 3.0 7.0 18 5080
+ 30.042 3 7 cbr 210 ------- 0 3.0 7.0 25 5087
- 30.042 3 7 cbr 210 ------- 0 3.0 7.0 25 5087
r 30.0436 3 7 cbr 210 ------- 0 3.0 7.0 19 5081
+ 30.04368 3 7 cbr 210 ------- 0 3.0 7.0 26 5088
- 30.04368 3 7 cbr 210 ------- 0 3.0 7.0 26 5088
r 30.04528 3 7 cbr 210 ------- 0 3.0 7.0 20 5082
+ 30.04536 3 7 cbr 210 ------- 0 3.0 7.0 27 5089
- 30.04536 3 7 cbr 210 ------- 0 3.0 7.0 27 5089
r 30.04696 3 7 cbr 210 ------- 0 3.0 7.0 21 5083
+ 30.04704 3 7 cbr 210 ------- 0 3.0 7.0 28 5090
- 30.04704 3 7 cbr 210 ------- 0 3.0 7.0 28 5090
r 30.04864 3 7 cbr 210 ------- 0 3.0 7.0 22 5084
+ 30.04872 3 7 cbr 210 ------- 0 3.0 7.0 29 5091
- 30.04872 3 7 cbr 210 ------- 0 3.0 7.0 29 5091
r 30.05032 3 7 cbr 210 ------- 0 3.0 7.0 23 5085
+ 30.0504 3 7 cbr 210 ------- 0 3.0 7.0 30 5092
- 30.0504 3 7 cbr 210 ------- 0 3.0 7.0 30 5092
r 30.052 3 7 cbr 210 ------- 0 3.0 7.0 24 5086
+ 30.05208 3 7 cbr 210 ------- 0 3.0 7.0 31 5093
- 30.05208 3 7 cbr 210 ------- 0 3.0 7.0 31 5093
r 30.05368 3 7 cbr 210 ------- 0 3.0 7.0 25 5087
+ 30.05376 3 7 cbr 210 ------- 0 3.0 7.0 32 5094
- 30.05376 3 7 cbr 210 ------- 0 3.0 7.0 32 5094
r 30.05536 3 7 cbr 210 ------- 0 3.0 7.0 26 5088
+ 30.05544 3 7 cbr 210 ------- 0 3.0 7.0 33 5095
- 30.05544 3 7 cbr 210 ------- 0 3.0 7.0 33 5095
r 30.05704 3 7 cbr 210 ------- 0 3.0 7.0 27 5089
+ 30.05712 3 7 cbr 210 ------- 0 3.0 7.0 34 5096
- 30.05712 3 7 cbr 210 ------- 0 3.0 7.0 34 5096
r 30.05872 3 7 cbr 210 ------- 0 3.0 7.0 28 5090
+ 30.0588 3 7 cbr 210 ------- 0 3.0 7.0 35 5097
- 30.0588 3 7 cbr 210 ------- 0 3.0 7.0 35 5097
r 30.0604 3 7 cbr 210 ------- 0 3.0 7.0 29 5091
+ 30.06048 3 7 cbr 210 ------- 0 3.0 7.0 36 5098
- 30.06048 3 7 cbr 210 ------- 0 3.0 7.0 36 5098
r 30.06208 3 7 cbr 210 ------- 0 3.0 7.0 30 5092
+ 30.06216 3 7 cbr 210 ------- 0 3.0 7.0 37 5099
- 30.06216 3 7 cbr 210 ------- 0 3.0 7.0 37 5099
r 30.06376 3 7 cbr 210 ------- 0 3.0 7.0 31 5093
+ 30.06384 3 7 cbr 210 ------- 0 3.0 7.0 38 5100
- 30.06384 3 7 cbr 210 ------- 0 3.0 7.0 38 5100
r 30.06544 3 7 cbr 210 ------- 0 3.0 7.0 32 5094
+ 30.06552 3 7 cbr 210 ------- 0 3.0 7.0 39 5101
- 30.06552 3 7 cbr 210 ------- 0 3.0 7.0 39 5101
r 30.06712 3 7 cbr 210 ------- 0 3.0 7.0 33 5095
+ 30.0672 3 7 cbr 210 ------- 0 3.0 7.0 40 5102
- 30.0672 3 7 cbr 210 ------- 0 3.0 7.0 40 5102
r 30.0688 3 7 cbr 210 ------- 0 3.0 7.0 34 5096
+ 30.06888 3 7 cbr 210 ------- 0 3.0 7.0 41 5103
- 30.06888 3 7 cbr 210 ------- 0 3.0 7.0 41 5103
r 30.07048 3 7 cbr 210 ------- 0 3.0 7.0 35 5097
+ 30.07056 3 7 cbr 210 ------- 0 3.0 7.0 42 5104
- 30.07056 3 7 cbr 210 ------- 0 3.0 7.0 42 5104
r 30.07216 3 7 cbr 210 ------- 0 3.0 7.0 36 5098
+ 30.07224 3 7 cbr 210 ------- 0 3.0 7.0 43 5105
- 30.07224 3 7 cbr 210 ------- 0 3.0 7.0 43 5105
r 30.07384 3 7 cbr 210 ------- 0 3.0 7.0 37 5099
+ 30.07392 3 7 cbr 210 ------- 0 3.0 7.0 44 5106
- 30.07392 3 7 cbr 210 ------- 0 3.0 7.0 44 5106
r 30.07552 3 7 cbr 210 ------- 0 3.0 7.0 38 5100
+ 30.0756 3 7 cbr 210 ------- 0 3.0 7.0 45 5107
- 30.0756 3 7 cbr 210 ------- 0 3.0 7.0 45 5107
r 30.0772 3 7 cbr 210 ------- 0 3.0 7.0 39 5101
+ 30.07728 3 7 cbr 210 ------- 0 3.0 7.0 46 5108
- 30.07728 3 7 cbr 210 ------- 0 3.0 7.0 46 5108
r 30.07888 3 7 cbr 210 ------- 0 3.0 7.0 40 5102
+ 30.07896 3 7 cbr 210 ------- 0 3.0 7.0 47 5109
- 30.07896 3 7 cbr 210 ------- 0 3.0 7.0 47 5109
r 30.08056 3 7 cbr 210 ------- 0 3.0 7.0 41 5103
+ 30.08064 3 7 cbr 210 ------- 0 3.0 7.0 48 5110
- 30.08064 3 7 cbr 210 ------- 0 3.0 7.0 48 5110
r 30.08224 3 7 cbr 210 ------- 0 3.0 7.0 42 5104
+ 30.08232 3 7 cbr 210 ------- 0 3.0 7.0 49 5111
- 30.08232 3 7 cbr 210 ------- 0 3.0 7.0 49 5111
r 30.08392 3 7 cbr 210 ------- 0 3.0 7.0 43 5105
+ 30.084 3 7 cbr 210 ------- 0 3.0 7.0 50 5112
- 30.084 3 7 cbr 210 ------- 0 3.0 7.0 50 5112
r 30.0856 3 7 cbr 210 ------- 0 3.0 7.0 44 5106
+ 30.08568 3 7 cbr 210 ------- 0 3.0 7.0 51 5113
- 30.08568 3 7 cbr 210 ------- 0 3.0 7.0 51 5113
r 30.08728 3 7 cbr 210 ------- 0 3.0 7.0 45 5107
+ 30.08736 3 7 cbr 210 ------- 0 3.0 7.0 52 5114
- 30.08736 3 7 cbr 210 ------- 0 3.0 7.0 52 5114
r 30.08896 3 7 cbr 210 ------- 0 3.0 7.0 46 5108
+ 30.08904 3 7 cbr 210 ------- 0 3.0 7.0 53 5115
- 30.08904 3 7 cbr 210 ------- 0 3.0 7.0 53 5115
r 30.09064 3 7 cbr 210 ------- 0 3.0 7.0 47 5109
+ 30.09072 3 7 cbr 210 ------- 0 3.0 7.0 54 5116
- 30.09072 3 7 cbr 210 ------- 0 3.0 7.0 54 5116
r 30.09232 3 7 cbr 210 ------- 0 3.0 7.0 48 5110
+ 30.0924 3 7 cbr 210 ------- 0 3.0 7.0 55 5117
- 30.0924 3 7 cbr 210 ------- 0 3.0 7.0 55 5117
r 30.094 3 7 cbr 210 ------- 0 3.0 7.0 49 5111
+ 30.09408 3 7 cbr 210 ------- 0 3.0 7.0 56 5118
- 30.09408 3 7 cbr 210 ------- 0 3.0 7.0 56 5118
r 30.09568 3 7 cbr 210 ------- 0 3.0 7.0 50 5112
+ 30.09576 3 7 cbr 210 ------- 0 3.0 7.0 57 5119
- 30.09576 3 7 cbr 210 ------- 0 3.0 7.0 57 5119
r 30.09736 3 7 cbr 210 ------- 0 3.0 7.0 51 5113
+ 30.09744 3 7 cbr 210 ------- 0 3.0 7.0 58 5120
- 30.09744 3 7 cbr 210 ------- 0 3.0 7.0 58 5120
r 30.09904 3 7 cbr 210 ------- 0 3.0 7.0 52 5114
+ 30.09912 3 7 cbr 210 ------- 0 3.0 7.0 59 5121
- 30.09912 3 7 cbr 210 ------- 0 3.0 7.0 59 5121
r 30.10072 3 7 cbr 210 ------- 0 3.0 7.0 53 5115
+ 30.1008 3 7 cbr 210 ------- 0 3.0 7.0 60 5122
- 30.1008 3 7 cbr 210 ------- 0 3.0 7.0 60 5122
r 30.1024 3 7 cbr 210 ------- 0 3.0 7.0 54 5116
+ 30.10248 3 7 cbr 210 ------- 0 3.0 7.0 61 5123
- 30.10248 3 7 cbr 210 ------- 0 3.0 7.0 61 5123
r 30.10408 3 7 cbr 210 ------- 0 3.0 7.0 55 5117
+ 30.10416 3 7 cbr 210 ------- 0 3.0 7.0 62 5124
- 30.10416 3 7 cbr 210 ------- 0 3.0 7.0 62 5124
r 30.10576 3 7 cbr 210 ------- 0 3.0 7.0 56 5118
+ 30.10584 3 7 cbr 210 ------- 0 3.0 7.0 63 5125
- 30.10584 3 7 cbr 210 ------- 0 3.0 7.0 63 5125
r 30.10744 3 7 cbr 210 ------- 0 3.0 7.0 57 5119
+ 30.10752 3 7 cbr 210 ------- 0 3.0 7.0 64 5126
- 30.10752 3 7 cbr 210 ------- 0 3.0 7.0 64 5126
r 30.10912 3 7 cbr 210 ------- 0 3.0 7.0 58 5120
+ 30.1092 3 7 cbr 210 ------- 0 3.0 7.0 65 5127
- 30.1092 3 7 cbr 210 ------- 0 3.0 7.0 65 5127
r 30.1108 3 7 cbr 210 ------- 0 3.0 7.0 59 5121
+ 30.11088 3 7 cbr 210 ------- 0 3.0 7.0 66 5128
- 30.11088 3 7 cbr 210 ------- 0 3.0 7.0 66 5128
r 30.11248 3 7 cbr 210 ------- 0 3.0 7.0 60 5122
+ 30.11256 3 7 cbr 210 ------- 0 3.0 7.0 67 5129
- 30.11256 3 7 cbr 210 ------- 0 3.0 7.0 67 5129
r 30.11416 3 7 cbr 210 ------- 0 3.0 7.0 61 5123
+ 30.11424 3 7 cbr 210 ------- 0 3.0 7.0 68 5130
- 30.11424 3 7 cbr 210 ------- 0 3.0 7.0 68 5130
r 30.11584 3 7 cbr 210 ------- 0 3.0 7.0 62 5124
+ 30.11592 3 7 cbr 210 ------- 0 3.0 7.0 69 5131
- 30.11592 3 7 cbr 210 ------- 0 3.0 7.0 69 5131
r 30.11752 3 7 cbr 210 ------- 0 3.0 7.0 63 5125
+ 30.1176 3 7 cbr 210 ------- 0 3.0 7.0 70 5132
- 30.1176 3 7 cbr 210 ------- 0 3.0 7.0 70 5132
r 30.1192 3 7 cbr 210 ------- 0 3.0 7.0 64 5126
+ 30.11928 3 7 cbr 210 ------- 0 3.0 7.0 71 5133
- 30.11928 3 7 cbr 210 ------- 0 3.0 7.0 71 5133
r 30.12088 3 7 cbr 210 ------- 0 3.0 7.0 65 5127
+ 30.12096 3 7 cbr 210 ------- 0 3.0 7.0 72 5134
- 30.12096 3 7 cbr 210 ------- 0 3.0 7.0 72 5134
r 30.12256 3 7 cbr 210 ------- 0 3.0 7.0 66 5128
+ 30.12264 3 7 cbr 210 ------- 0 3.0 7.0 73 5135
- 30.12264 3 7 cbr 210 ------- 0 3.0 7.0 73 5135
r 30.12424 3 7 cbr 210 ------- 0 3.0 7.0 67 5129
+ 30.12432 3 7 cbr 210 ------- 0 3.0 7.0 74 5136
- 30.12432 3 7 cbr 210 ------- 0 3.0 7.0 74 5136
r 30.12592 3 7 cbr 210 ------- 0 3.0 7.0 68 5130
+ 30.126 3 7 cbr 210 ------- 0 3.0 7.0 75 5137
- 30.126 3 7 cbr 210 ------- 0 3.0 7.0 75 5137
r 30.1276 3 7 cbr 210 ------- 0 3.0 7.0 69 5131
+ 30.12768 3 7 cbr 210 ------- 0 3.0 7.0 76 5138
- 30.12768 3 7 cbr 210 ------- 0 3.0 7.0 76 5138
r 30.12928 3 7 cbr 210 ------- 0 3.0 7.0 70 5132
+ 30.12936 3 7 cbr 210 ------- 0 3.0 7.0 77 5139
- 30.12936 3 7 cbr 210 ------- 0 3.0 7.0 77 5139
r 30.13096 3 7 cbr 210 ------- 0 3.0 7.0 71 5133
+ 30.13104 3 7 cbr 210 ------- 0 3.0 7.0 78 5140
- 30.13104 3 7 cbr 210 ------- 0 3.0 7.0 78 5140
r 30.13264 3 7 cbr 210 ------- 0 3.0 7.0 72 5134
+ 30.13272 3 7 cbr 210 ------- 0 3.0 7.0 79 5141
- 30.13272 3 7 cbr 210 ------- 0 3.0 7.0 79 5141
r 30.13432 3 7 cbr 210 ------- 0 3.0 7.0 73 5135
+ 30.1344 3 7 cbr 210 ------- 0 3.0 7.0 80 5142
- 30.1344 3 7 cbr 210 ------- 0 3.0 7.0 80 5142
r 30.136 3 7 cbr 210 ------- 0 3.0 7.0 74 5136
+ 30.13608 3 7 cbr 210 ------- 0 3.0 7.0 81 5143
- 30.13608 3 7 cbr 210 ------- 0 3.0 7.0 81 5143
r 30.13768 3 7 cbr 210 ------- 0 3.0 7.0 75 5137
+ 30.13776 3 7 cbr 210 ------- 0 3.0 7.0 82 5144
- 30.13776 3 7 cbr 210 ------- 0 3.0 7.0 82 5144
r 30.13936 3 7 cbr 210 ------- 0 3.0 7.0 76 5138
+ 30.13944 3 7 cbr 210 ------- 0 3.0 7.0 83 5145
- 30.13944 3 7 cbr 210 ------- 0 3.0 7.0 83 5145
r 30.14104 3 7 cbr 210 ------- 0 3.0 7.0 77 5139
+ 30.14112 3 7 cbr 210 ------- 0 3.0 7.0 84 5146
- 30.14112 3 7 cbr 210 ------- 0 3.0 7.0 84 5146
r 30.14272 3 7 cbr 210 ------- 0 3.0 7.0 78 5140
+ 30.1428 3 7 cbr 210 ------- 0 3.0 7.0 85 5147
- 30.1428 3 7 cbr 210 ------- 0 3.0 7.0 85 5147
r 30.1444 3 7 cbr 210 ------- 0 3.0 7.0 79 5141
+ 30.14448 3 7 cbr 210 ------- 0 3.0 7.0 86 5148
- 30.14448 3 7 cbr 210 ------- 0 3.0 7.0 86 5148
r 30.14608 3 7 cbr 210 ------- 0 3.0 7.0 80 5142
+ 30.14616 3 7 cbr 210 ------- 0 3.0 7.0 87 5149
- 30.14616 3 7 cbr 210 ------- 0 3.0 7.0 87 5149
r 30.14776 3 7 cbr 210 ------- 0 3.0 7.0 81 5143
+ 30.14784 3 7 cbr 210 ------- 0 3.0 7.0 88 5150
- 30.14784 3 7 cbr 210 ------- 0 3.0 7.0 88 5150
r 30.14944 3 7 cbr 210 ------- 0 3.0 7.0 82 5144
+ 30.14952 3 7 cbr 210 ------- 0 3.0 7.0 89 5151
- 30.14952 3 7 cbr 210 ------- 0 3.0 7.0 89 5151
r 30.15112 3 7 cbr 210 ------- 0 3.0 7.0 83 5145
+ 30.1512 3 7 cbr 210 ------- 0 3.0 7.0 90 5152
- 30.1512 3 7 cbr 210 ------- 0 3.0 7.0 90 5152
r 30.1528 3 7 cbr 210 ------- 0 3.0 7.0 84 5146
+ 30.15288 3 7 cbr 210 ------- 0 3.0 7.0 91 5153
- 30.15288 3 7 cbr 210 ------- 0 3.0 7.0 91 5153
r 30.15448 3 7 cbr 210 ------- 0 3.0 7.0 85 5147
+ 30.15456 3 7 cbr 210 ------- 0 3.0 7.0 92 5154
- 30.15456 3 7 cbr 210 ------- 0 3.0 7.0 92 5154
r 30.15616 3 7 cbr 210 ------- 0 3.0 7.0 86 5148
+ 30.15624 3 7 cbr 210 ------- 0 3.0 7.0 93 5155
- 30.15624 3 7 cbr 210 ------- 0 3.0 7.0 93 5155
r 30.15784 3 7 cbr 210 ------- 0 3.0 7.0 87 5149
+ 30.15792 3 7 cbr 210 ------- 0 3.0 7.0 94 5156
- 30.15792 3 7 cbr 210 ------- 0 3.0 7.0 94 5156
r 30.15952 3 7 cbr 210 ------- 0 3.0 7.0 88 5150
+ 30.1596 3 7 cbr 210 ------- 0 3.0 7.0 95 5157
- 30.1596 3 7 cbr 210 ------- 0 3.0 7.0 95 5157
r 30.1612 3 7 cbr 210 ------- 0 3.0 7.0 89 5151
+ 30.16128 3 7 cbr 210 ------- 0 3.0 7.0 96 5158
- 30.16128 3 7 cbr 210 ------- 0 3.0 7.0 96 5158
r 30.16288 3 7 cbr 210 ------- 0 3.0 7.0 90 5152
+ 30.16296 3 7 cbr 210 ------- 0 3.0 7.0 97 5159
- 30.16296 3 7 cbr 210 ------- 0 3.0 7.0 97 5159
r 30.16456 3 7 cbr 210 ------- 0 3.0 7.0 91 5153
+ 30.16464 3 7 cbr 210 ------- 0 3.0 7.0 98 5160
- 30.16464 3 7 cbr 210 ------- 0 3.0 7.0 98 5160
r 30.16624 3 7 cbr 210 ------- 0 3.0 7.0 92 5154
+ 30.16632 3 7 cbr 210 ------- 0 3.0 7.0 99 5161
- 30.16632 3 7 cbr 210 ------- 0 3.0 7.0 99 5161
r 30.16792 3 7 cbr 210 ------- 0 3.0 7.0 93 5155
+ 30.168 3 7 cbr 210 ------- 0 3.0 7.0 100 5162
- 30.168 3 7 cbr 210 ------- 0 3.0 7.0 100 5162
r 30.1696 3 7 cbr 210 ------- 0 3.0 7.0 94 5156
+ 30.16968 3 7 cbr 210 ------- 0 3.0 7.0 101 5163
- 30.16968 3 7 cbr 210 ------- 0 3.0 7.0 101 5163
r 30.17128 3 7 cbr 210 ------- 0 3.0 7.0 95 5157
+ 30.17136 3 7 cbr 210 ------- 0 3.0 7.0 102 5164
- 30.17136 3 7 cbr 210 ------- 0 3.0 7.0 102 5164
r 30.17296 3 7 cbr 210 ------- 0 3.0 7.0 96 5158
+ 30.17304 3 7 cbr 210 ------- 0 3.0 7.0 103 5165
- 30.17304 3 7 cbr 210 ------- 0 3.0 7.0 103 5165
r 30.17464 3 7 cbr 210 ------- 0 3.0 7.0 97 5159
+ 30.17472 3 7 cbr 210 ------- 0 3.0 7.0 104 5166
- 30.17472 3 7 cbr 210 ------- 0 3.0 7.0 104 5166
r 30.17632 3 7 cbr 210 ------- 0 3.0 7.0 98 5160
+ 30.1764 3 7 cbr 210 ------- 0 3.0 7.0 105 5167
- 30.1764 3 7 cbr 210 ------- 0 3.0 7.0 105 5167
r 30.178 3 7 cbr 210 ------- 0 3.0 7.0 99 5161
+ 30.17808 3 7 cbr 210 ------- 0 3.0 7.0 106 5168
- 30.17808 3 7 cbr 210 ------- 0 3.0 7.0 106 5168
r 30.17968 3 7 cbr 210 ------- 0 3.0 7.0 100 5162
+ 30.17976 3 7 cbr 210 ------- 0 3.0 7.0 107 5169
- 30.17976 3 7 cbr 210 ------- 0 3.0 7.0 107 5169
r 30.18136 3 7 cbr 210 ------- 0 3.0 7.0 101 5163
+ 30.18144 3 7 cbr 210 ------- 0 3.0 7.0 108 5170
- 30.18144 3 7 cbr 210 ------- 0 3.0 7.0 108 5170
r 30.18304 3 7 cbr 210 ------- 0 3.0 7.0 102 5164
+ 30.18312 3 7 cbr 210 ------- 0 3.0 7.0 109 5171
- 30.18312 3 7 cbr 210 ------- 0 3.0 7.0 109 5171
r 30.18472 3 7 cbr 210 ------- 0 3.0 7.0 103 5165
+ 30.1848 3 7 cbr 210 ------- 0 3.0 7.0 110 5172
- 30.1848 3 7 cbr 210 ------- 0 3.0 7.0 110 5172
r 30.1864 3 7 cbr 210 ------- 0 3.0 7.0 104 5166
+ 30.18648 3 7 cbr 210 ------- 0 3.0 7.0 111 5173
- 30.18648 3 7 cbr 210 ------- 0 3.0 7.0 111 5173
r 30.18808 3 7 cbr 210 ------- 0 3.0 7.0 105 5167
+ 30.18816 3 7 cbr 210 ------- 0 3.0 7.0 112 5174
- 30.18816 3 7 cbr 210 ------- 0 3.0 7.0 112 5174
r 30.18976 3 7 cbr 210 ------- 0 3.0 7.0 106 5168
+ 30.18984 3 7 cbr 210 ------- 0 3.0 7.0 113 5175
- 30.18984 3 7 cbr 210 ------- 0 3.0 7.0 113 5175
r 30.19144 3 7 cbr 210 ------- 0 3.0 7.0 107 5169
+ 30.19152 3 7 cbr 210 ------- 0 3.0 7.0 114 5176
- 30.19152 3 7 cbr 210 ------- 0 3.0 7.0 114 5176
r 30.19312 3 7 cbr 210 ------- 0 3.0 7.0 108 5170
+ 30.1932 3 7 cbr 210 ------- 0 3.0 7.0 115 5177
- 30.1932 3 7 cbr 210 ------- 0 3.0 7.0 115 5177
r 30.1948 3 7 cbr 210 ------- 0 3.0 7.0 109 5171
+ 30.19488 3 7 cbr 210 ------- 0 3.0 7.0 116 5178
- 30.19488 3 7 cbr 210 ------- 0 3.0 7.0 116 5178
r 30.19648 3 7 cbr 210 ------- 0 3.0 7.0 110 5172
+ 30.19656 3 7 cbr 210 ------- 0 3.0 7.0 117 5179
- 30.19656 3 7 cbr 210 ------- 0 3.0 7.0 117 5179
r 30.19816 3 7 cbr 210 ------- 0 3.0 7.0 111 5173
+ 30.19824 3 7 cbr 210 ------- 0 3.0 7.0 118 5180
- 30.19824 3 7 cbr 210 ------- 0 3.0 7.0 118 5180
r 30.19984 3 7 cbr 210 ------- 0 3.0 7.0 112 5174
+ 30.19992 3 7 cbr 210 ------- 0 3.0 7.0 119 5181
- 30.19992 3 7 cbr 210 ------- 0 3.0 7.0 119 5181
r 30.20152 3 7 cbr 210 ------- 0 3.0 7.0 113 5175
+ 30.2016 3 7 cbr 210 ------- 0 3.0 7.0 120 5182
- 30.2016 3 7 cbr 210 ------- 0 3.0 7.0 120 5182
r 30.2032 3 7 cbr 210 ------- 0 3.0 7.0 114 5176
+ 30.20328 3 7 cbr 210 ------- 0 3.0 7.0 121 5183
- 30.20328 3 7 cbr 210 ------- 0 3.0 7.0 121 5183
r 30.20488 3 7 cbr 210 ------- 0 3.0 7.0 115 5177
+ 30.20496 3 7 cbr 210 ------- 0 3.0 7.0 122 5184
- 30.20496 3 7 cbr 210 ------- 0 3.0 7.0 122 5184
r 30.20656 3 7 cbr 210 ------- 0 3.0 7.0 116 5178
+ 30.20664 3 7 cbr 210 ------- 0 3.0 7.0 123 5185
- 30.20664 3 7 cbr 210 ------- 0 3.0 7.0 123 5185
r 30.20824 3 7 cbr 210 ------- 0 3.0 7.0 117 5179
+ 30.20832 3 7 cbr 210 ------- 0 3.0 7.0 124 5186
- 30.20832 3 7 cbr 210 ------- 0 3.0 7.0 124 5186
r 30.20992 3 7 cbr 210 ------- 0 3.0 7.0 118 5180
+ 30.21 3 7 cbr 210 ------- 0 3.0 7.0 125 5187
- 30.21 3 7 cbr 210 ------- 0 3.0 7.0 125 5187
r 30.2116 3 7 cbr 210 ------- 0 3.0 7.0 119 5181
+ 30.21168 3 7 cbr 210 ------- 0 3.0 7.0 126 5188
- 30.21168 3 7 cbr 210 ------- 0 3.0 7.0 126 5188
r 30.21328 3 7 cbr 210 ------- 0 3.0 7.0 120 5182
+ 30.21336 3 7 cbr 210 ------- 0 3.0 7.0 127 5189
- 30.21336 3 7 cbr 210 ------- 0 3.0 7.0 127 5189
r 30.21496 3 7 cbr 210 ------- 0 3.0 7.0 121 5183
+ 30.21504 3 7 cbr 210 ------- 0 3.0 7.0 128 5190
- 30.21504 3 7 cbr 210 ------- 0 3.0 7.0 128 5190
r 30.21664 3 7 cbr 210 ------- 0 3.0 7.0 122 5184
+ 30.21672 3 7 cbr 210 ------- 0 3.0 7.0 129 5191
- 30.21672 3 7 cbr 210 ------- 0 3.0 7.0 129 5191
r 30.21832 3 7 cbr 210 ------- 0 3.0 7.0 123 5185
+ 30.2184 3 7 cbr 210 ------- 0 3.0 7.0 130 5192
- 30.2184 3 7 cbr 210 ------- 0 3.0 7.0 130 5192
r 30.22 3 7 cbr 210 ------- 0 3.0 7.0 124 5186
+ 30.22008 3 7 cbr 210 ------- 0 3.0 7.0 131 5193
- 30.22008 3 7 cbr 210 ------- 0 3.0 7.0 131 5193
r 30.22168 3 7 cbr 210 ------- 0 3.0 7.0 125 5187
+ 30.22176 3 7 cbr 210 ------- 0 3.0 7.0 132 5194
- 30.22176 3 7 cbr 210 ------- 0 3.0 7.0 132 5194
r 30.22336 3 7 cbr 210 ------- 0 3.0 7.0 126 5188
+ 30.22344 3 7 cbr 210 ------- 0 3.0 7.0 133 5195
- 30.22344 3 7 cbr 210 ------- 0 3.0 7.0 133 5195
r 30.22504 3 7 cbr 210 ------- 0 3.0 7.0 127 5189
+ 30.22512 3 7 cbr 210 ------- 0 3.0 7.0 134 5196
- 30.22512 3 7 cbr 210 ------- 0 3.0 7.0 134 5196
r 30.22672 3 7 cbr 210 ------- 0 3.0 7.0 128 5190
+ 30.2268 3 7 cbr 210 ------- 0 3.0 7.0 135 5197
- 30.2268 3 7 cbr 210 ------- 0 3.0 7.0 135 5197
r 30.2284 3 7 cbr 210 ------- 0 3.0 7.0 129 5191
+ 30.22848 3 7 cbr 210 ------- 0 3.0 7.0 136 5198
- 30.22848 3 7 cbr 210 ------- 0 3.0 7.0 136 5198
r 30.23008 3 7 cbr 210 ------- 0 3.0 7.0 130 5192
+ 30.23016 3 7 cbr 210 ------- 0 3.0 7.0 137 5199
- 30.23016 3 7 cbr 210 ------- 0 3.0 7.0 137 5199
r 30.23176 3 7 cbr 210 ------- 0 3.0 7.0 131 5193
+ 30.23184 3 7 cbr 210 ------- 0 3.0 7.0 138 5200
- 30.23184 3 7 cbr 210 ------- 0 3.0 7.0 138 5200
r 30.23344 3 7 cbr 210 ------- 0 3.0 7.0 132 5194
+ 30.23352 3 7 cbr 210 ------- 0 3.0 7.0 139 5201
- 30.23352 3 7 cbr 210 ------- 0 3.0 7.0 139 5201
r 30.23512 3 7 cbr 210 ------- 0 3.0 7.0 133 5195
+ 30.2352 3 7 cbr 210 ------- 0 3.0 7.0 140 5202
- 30.2352 3 7 cbr 210 ------- 0 3.0 7.0 140 5202
r 30.2368 3 7 cbr 210 ------- 0 3.0 7.0 134 5196
+ 30.23688 3 7 cbr 210 ------- 0 3.0 7.0 141 5203
- 30.23688 3 7 cbr 210 ------- 0 3.0 7.0 141 5203
r 30.23848 3 7 cbr 210 ------- 0 3.0 7.0 135 5197
+ 30.23856 3 7 cbr 210 ------- 0 3.0 7.0 142 5204
- 30.23856 3 7 cbr 210 ------- 0 3.0 7.0 142 5204
r 30.24016 3 7 cbr 210 ------- 0 3.0 7.0 136 5198
+ 30.24024 3 7 cbr 210 ------- 0 3.0 7.0 143 5205
- 30.24024 3 7 cbr 210 ------- 0 3.0 7.0 143 5205
r 30.24184 3 7 cbr 210 ------- 0 3.0 7.0 137 5199
+ 30.24192 3 7 cbr 210 ------- 0 3.0 7.0 144 5206
- 30.24192 3 7 cbr 210 ------- 0 3.0 7.0 144 5206
r 30.24352 3 7 cbr 210 ------- 0 3.0 7.0 138 5200
+ 30.2436 3 7 cbr 210 ------- 0 3.0 7.0 145 5207
- 30.2436 3 7 cbr 210 ------- 0 3.0 7.0 145 5207
r 30.2452 3 7 cbr 210 ------- 0 3.0 7.0 139 5201
+ 30.24528 3 7 cbr 210 ------- 0 3.0 7.0 146 5208
- 30.24528 3 7 cbr 210 ------- 0 3.0 7.0 146 5208
r 30.24688 3 7 cbr 210 ------- 0 3.0 7.0 140 5202
+ 30.24696 3 7 cbr 210 ------- 0 3.0 7.0 147 5209
- 30.24696 3 7 cbr 210 ------- 0 3.0 7.0 147 5209
r 30.24856 3 7 cbr 210 ------- 0 3.0 7.0 141 5203
+ 30.24864 3 7 cbr 210 ------- 0 3.0 7.0 148 5210
- 30.24864 3 7 cbr 210 ------- 0 3.0 7.0 148 5210
r 30.25024 3 7 cbr 210 ------- 0 3.0 7.0 142 5204
+ 30.25032 3 7 cbr 210 ------- 0 3.0 7.0 149 5211
- 30.25032 3 7 cbr 210 ------- 0 3.0 7.0 149 5211
r 30.25192 3 7 cbr 210 ------- 0 3.0 7.0 143 5205
+ 30.252 3 7 cbr 210 ------- 0 3.0 7.0 150 5212
- 30.252 3 7 cbr 210 ------- 0 3.0 7.0 150 5212
r 30.2536 3 7 cbr 210 ------- 0 3.0 7.0 144 5206
+ 30.25368 3 7 cbr 210 ------- 0 3.0 7.0 151 5213
- 30.25368 3 7 cbr 210 ------- 0 3.0 7.0 151 5213
r 30.25528 3 7 cbr 210 ------- 0 3.0 7.0 145 5207
+ 30.25536 3 7 cbr 210 ------- 0 3.0 7.0 152 5214
- 30.25536 3 7 cbr 210 ------- 0 3.0 7.0 152 5214
r 30.25696 3 7 cbr 210 ------- 0 3.0 7.0 146 5208
+ 30.25704 3 7 cbr 210 ------- 0 3.0 7.0 153 5215
- 30.25704 3 7 cbr 210 ------- 0 3.0 7.0 153 5215
r 30.25864 3 7 cbr 210 ------- 0 3.0 7.0 147 5209
+ 30.25872 3 7 cbr 210 ------- 0 3.0 7.0 154 5216
- 30.25872 3 7 cbr 210 ------- 0 3.0 7.0 154 5216
r 30.26032 3 7 cbr 210 ------- 0 3.0 7.0 148 5210
+ 30.2604 3 7 cbr 210 ------- 0 3.0 7.0 155 5217
- 30.2604 3 7 cbr 210 ------- 0 3.0 7.0 155 5217
r 30.262 3 7 cbr 210 ------- 0 3.0 7.0 149 5211
+ 30.26208 3 7 cbr 210 ------- 0 3.0 7.0 156 5218
- 30.26208 3 7 cbr 210 ------- 0 3.0 7.0 156 5218
r 30.26368 3 7 cbr 210 ------- 0 3.0 7.0 150 5212
+ 30.26376 3 7 cbr 210 ------- 0 3.0 7.0 157 5219
- 30.26376 3 7 cbr 210 ------- 0 3.0 7.0 157 5219
r 30.26536 3 7 cbr 210 ------- 0 3.0 7.0 151 5213
+ 30.26544 3 7 cbr 210 ------- 0 3.0 7.0 158 5220
- 30.26544 3 7 cbr 210 ------- 0 3.0 7.0 158 5220
r 30.26704 3 7 cbr 210 ------- 0 3.0 7.0 152 5214
+ 30.26712 3 7 cbr 210 ------- 0 3.0 7.0 159 5221
- 30.26712 3 7 cbr 210 ------- 0 3.0 7.0 159 5221
r 30.26872 3 7 cbr 210 ------- 0 3.0 7.0 153 5215
+ 30.2688 3 7 cbr 210 ------- 0 3.0 7.0 160 5222
- 30.2688 3 7 cbr 210 ------- 0 3.0 7.0 160 5222
r 30.2704 3 7 cbr 210 ------- 0 3.0 7.0 154 5216
+ 30.27048 3 7 cbr 210 ------- 0 3.0 7.0 161 5223
- 30.27048 3 7 cbr 210 ------- 0 3.0 7.0 161 5223
r 30.27208 3 7 cbr 210 ------- 0 3.0 7.0 155 5217
+ 30.27216 3 7 cbr 210 ------- 0 3.0 7.0 162 5224
- 30.27216 3 7 cbr 210 ------- 0 3.0 7.0 162 5224
r 30.27376 3 7 cbr 210 ------- 0 3.0 7.0 156 5218
+ 30.27384 3 7 cbr 210 ------- 0 3.0 7.0 163 5225
- 30.27384 3 7 cbr 210 ------- 0 3.0 7.0 163 5225
r 30.27544 3 7 cbr 210 ------- 0 3.0 7.0 157 5219
+ 30.27552 3 7 cbr 210 ------- 0 3.0 7.0 164 5226
- 30.27552 3 7 cbr 210 ------- 0 3.0 7.0 164 5226
r 30.27712 3 7 cbr 210 ------- 0 3.0 7.0 158 5220
+ 30.2772 3 7 cbr 210 ------- 0 3.0 7.0 165 5227
- 30.2772 3 7 cbr 210 ------- 0 3.0 7.0 165 5227
r 30.2788 3 7 cbr 210 ------- 0 3.0 7.0 159 5221
+ 30.27888 3 7 cbr 210 ------- 0 3.0 7.0 166 5228
- 30.27888 3 7 cbr 210 ------- 0 3.0 7.0 166 5228
r 30.28048 3 7 cbr 210 ------- 0 3.0 7.0 160 5222
+ 30.28056 3 7 cbr 210 ------- 0 3.0 7.0 167 5229
- 30.28056 3 7 cbr 210 ------- 0 3.0 7.0 167 5229
r 30.28216 3 7 cbr 210 ------- 0 3.0 7.0 161 5223
+ 30.28224 3 7 cbr 210 ------- 0 3.0 7.0 168 5230
- 30.28224 3 7 cbr 210 ------- 0 3.0 7.0 168 5230
r 30.28384 3 7 cbr 210 ------- 0 3.0 7.0 162 5224
+ 30.28392 3 7 cbr 210 ------- 0 3.0 7.0 169 5231
- 30.28392 3 7 cbr 210 ------- 0 3.0 7.0 169 5231
r 30.28552 3 7 cbr 210 ------- 0 3.0 7.0 163 5225
+ 30.2856 3 7 cbr 210 ------- 0 3.0 7.0 170 5232
- 30.2856 3 7 cbr 210 ------- 0 3.0 7.0 170 5232
r 30.2872 3 7 cbr 210 ------- 0 3.0 7.0 164 5226
+ 30.28728 3 7 cbr 210 ------- 0 3.0 7.0 171 5233
- 30.28728 3 7 cbr 210 ------- 0 3.0 7.0 171 5233
r 30.28888 3 7 cbr 210 ------- 0 3.0 7.0 165 5227
+ 30.28896 3 7 cbr 210 ------- 0 3.0 7.0 172 5234
- 30.28896 3 7 cbr 210 ------- 0 3.0 7.0 172 5234
r 30.29056 3 7 cbr 210 ------- 0 3.0 7.0 166 5228
+ 30.29064 3 7 cbr 210 ------- 0 3.0 7.0 173 5235
- 30.29064 3 7 cbr 210 ------- 0 3.0 7.0 173 5235
r 30.29224 3 7 cbr 210 ------- 0 3.0 7.0 167 5229
+ 30.29232 3 7 cbr 210 ------- 0 3.0 7.0 174 5236
- 30.29232 3 7 cbr 210 ------- 0 3.0 7.0 174 5236
r 30.29392 3 7 cbr 210 ------- 0 3.0 7.0 168 5230
+ 30.294 3 7 cbr 210 ------- 0 3.0 7.0 175 5237
- 30.294 3 7 cbr 210 ------- 0 3.0 7.0 175 5237
r 30.2956 3 7 cbr 210 ------- 0 3.0 7.0 169 5231
+ 30.29568 3 7 cbr 210 ------- 0 3.0 7.0 176 5238
- 30.29568 3 7 cbr 210 ------- 0 3.0 7.0 176 5238
r 30.29728 3 7 cbr 210 ------- 0 3.0 7.0 170 5232
+ 30.29736 3 7 cbr 210 ------- 0 3.0 7.0 177 5239
- 30.29736 3 7 cbr 210 ------- 0 3.0 7.0 177 5239
r 30.29896 3 7 cbr 210 ------- 0 3.0 7.0 171 5233
+ 30.29904 3 7 cbr 210 ------- 0 3.0 7.0 178 5240
- 30.29904 3 7 cbr 210 ------- 0 3.0 7.0 178 5240
r 30.30064 3 7 cbr 210 ------- 0 3.0 7.0 172 5234
+ 30.30072 3 7 cbr 210 ------- 0 3.0 7.0 179 5241
- 30.30072 3 7 cbr 210 ------- 0 3.0 7.0 179 5241
r 30.30232 3 7 cbr 210 ------- 0 3.0 7.0 173 5235
+ 30.3024 3 7 cbr 210 ------- 0 3.0 7.0 180 5242
- 30.3024 3 7 cbr 210 ------- 0 3.0 7.0 180 5242
r 30.304 3 7 cbr 210 ------- 0 3.0 7.0 174 5236
+ 30.30408 3 7 cbr 210 ------- 0 3.0 7.0 181 5243
- 30.30408 3 7 cbr 210 ------- 0 3.0 7.0 181 5243
r 30.30568 3 7 cbr 210 ------- 0 3.0 7.0 175 5237
+ 30.30576 3 7 cbr 210 ------- 0 3.0 7.0 182 5244
- 30.30576 3 7 cbr 210 ------- 0 3.0 7.0 182 5244
r 30.30736 3 7 cbr 210 ------- 0 3.0 7.0 176 5238
+ 30.30744 3 7 cbr 210 ------- 0 3.0 7.0 183 5245
- 30.30744 3 7 cbr 210 ------- 0 3.0 7.0 183 5245
r 30.30904 3 7 cbr 210 ------- 0 3.0 7.0 177 5239
+ 30.30912 3 7 cbr 210 ------- 0 3.0 7.0 184 5246
- 30.30912 3 7 cbr 210 ------- 0 3.0 7.0 184 5246
r 30.31072 3 7 cbr 210 ------- 0 3.0 7.0 178 5240
+ 30.3108 3 7 cbr 210 ------- 0 3.0 7.0 185 5247
- 30.3108 3 7 cbr 210 ------- 0 3.0 7.0 185 5247
r 30.3124 3 7 cbr 210 ------- 0 3.0 7.0 179 5241
+ 30.31248 3 7 cbr 210 ------- 0 3.0 7.0 186 5248
- 30.31248 3 7 cbr 210 ------- 0 3.0 7.0 186 5248
r 30.31408 3 7 cbr 210 ------- 0 3.0 7.0 180 5242
+ 30.31416 3 7 cbr 210 ------- 0 3.0 7.0 187 5249
- 30.31416 3 7 cbr 210 ------- 0 3.0 7.0 187 5249
r 30.31576 3 7 cbr 210 ------- 0 3.0 7.0 181 5243
+ 30.31584 3 7 cbr 210 ------- 0 3.0 7.0 188 5250
- 30.31584 3 7 cbr 210 ------- 0 3.0 7.0 188 5250
r 30.31744 3 7 cbr 210 ------- 0 3.0 7.0 182 5244
+ 30.31752 3 7 cbr 210 ------- 0 3.0 7.0 189 5251
- 30.31752 3 7 cbr 210 ------- 0 3.0 7.0 189 5251
r 30.31912 3 7 cbr 210 ------- 0 3.0 7.0 183 5245
+ 30.3192 3 7 cbr 210 ------- 0 3.0 7.0 190 5252
- 30.3192 3 7 cbr 210 ------- 0 3.0 7.0 190 5252
r 30.3208 3 7 cbr 210 ------- 0 3.0 7.0 184 5246
+ 30.32088 3 7 cbr 210 ------- 0 3.0 7.0 191 5253
- 30.32088 3 7 cbr 210 ------- 0 3.0 7.0 191 5253
r 30.32248 3 7 cbr 210 ------- 0 3.0 7.0 185 5247
+ 30.32256 3 7 cbr 210 ------- 0 3.0 7.0 192 5254
- 30.32256 3 7 cbr 210 ------- 0 3.0 7.0 192 5254
r 30.32416 3 7 cbr 210 ------- 0 3.0 7.0 186 5248
+ 30.32424 3 7 cbr 210 ------- 0 3.0 7.0 193 5255
- 30.32424 3 7 cbr 210 ------- 0 3.0 7.0 193 5255
r 30.32584 3 7 cbr 210 ------- 0 3.0 7.0 187 5249
+ 30.32592 3 7 cbr 210 ------- 0 3.0 7.0 194 5256
- 30.32592 3 7 cbr 210 ------- 0 3.0 7.0 194 5256
r 30.32752 3 7 cbr 210 ------- 0 3.0 7.0 188 5250
+ 30.3276 3 7 cbr 210 ------- 0 3.0 7.0 195 5257
- 30.3276 3 7 cbr 210 ------- 0 3.0 7.0 195 5257
r 30.3292 3 7 cbr 210 ------- 0 3.0 7.0 189 5251
+ 30.32928 3 7 cbr 210 ------- 0 3.0 7.0 196 5258
- 30.32928 3 7 cbr 210 ------- 0 3.0 7.0 196 5258
r 30.33088 3 7 cbr 210 ------- 0 3.0 7.0 190 5252
+ 30.33096 3 7 cbr 210 ------- 0 3.0 7.0 197 5259
- 30.33096 3 7 cbr 210 ------- 0 3.0 7.0 197 5259
r 30.33256 3 7 cbr 210 ------- 0 3.0 7.0 191 5253
+ 30.33264 3 7 cbr 210 ------- 0 3.0 7.0 198 5260
- 30.33264 3 7 cbr 210 ------- 0 3.0 7.0 198 5260
r 30.33424 3 7 cbr 210 ------- 0 3.0 7.0 192 5254
+ 30.33432 3 7 cbr 210 ------- 0 3.0 7.0 199 5261
- 30.33432 3 7 cbr 210 ------- 0 3.0 7.0 199 5261
r 30.33592 3 7 cbr 210 ------- 0 3.0 7.0 193 5255
+ 30.336 3 7 cbr 210 ------- 0 3.0 7.0 200 5262
- 30.336 3 7 cbr 210 ------- 0 3.0 7.0 200 5262
r 30.3376 3 7 cbr 210 ------- 0 3.0 7.0 194 5256
+ 30.33768 3 7 cbr 210 ------- 0 3.0 7.0 201 5263
- 30.33768 3 7 cbr 210 ------- 0 3.0 7.0 201 5263
r 30.33928 3 7 cbr 210 ------- 0 3.0 7.0 195 5257
+ 30.33936 3 7 cbr 210 ------- 0 3.0 7.0 202 5264
- 30.33936 3 7 cbr 210 ------- 0 3.0 7.0 202 5264
r 30.34096 3 7 cbr 210 ------- 0 3.0 7.0 196 5258
+ 30.34104 3 7 cbr 210 ------- 0 3.0 7.0 203 5265
- 30.34104 3 7 cbr 210 ------- 0 3.0 7.0 203 5265
r 30.34264 3 7 cbr 210 ------- 0 3.0 7.0 197 5259
+ 30.34272 3 7 cbr 210 ------- 0 3.0 7.0 204 5266
- 30.34272 3 7 cbr 210 ------- 0 3.0 7.0 204 5266
r 30.34432 3 7 cbr 210 ------- 0 3.0 7.0 198 5260