+ 60 6 7 cbr 210 ------- 0 6.0 7.0 0 31849
- 60 6 7 cbr 210 ------- 0 6.0 7.0 0 31849
+ 60.00056 6 7 cbr 210 ------- 0 6.0 7.0 1 31850
+ 60.00112 6 7 cbr 210 ------- 0 6.0 7.0 2 31851
- 60.00168 6 7 cbr 210 ------- 0 6.0 7.0 1 31850
+ 60.00168 6 7 cbr 210 ------- 0 6.0 7.0 3 31852
+ 60.00224 6 7 cbr 210 ------- 0 6.0 7.0 4 31853
+ 60.0028 6 7 cbr 210 ------- 0 6.0 7.0 5 31854
- 60.00336 6 7 cbr 210 ------- 0 6.0 7.0 2 31851
+ 60.00336 6 7 cbr 210 ------- 0 6.0 7.0 6 31855
+ 60.00392 6 7 cbr 210 ------- 0 6.0 7.0 7 31856
+ 60.00448 6 7 cbr 210 ------- 0 6.0 7.0 8 31857
- 60.00504 6 7 cbr 210 ------- 0 6.0 7.0 3 31852
+ 60.00504 6 7 cbr 210 ------- 0 6.0 7.0 9 31858
+ 60.0056 6 7 cbr 210 ------- 0 6.0 7.0 10 31859
+ 60.00616 6 7 cbr 210 ------- 0 6.0 7.0 11 31860
- 60.00672 6 7 cbr 210 ------- 0 6.0 7.0 4 31853
+ 60.00672 6 7 cbr 210 ------- 0 6.0 7.0 12 31861
+ 60.00728 6 7 cbr 210 ------- 0 6.0 7.0 13 31862
+ 60.00784 6 7 cbr 210 ------- 0 6.0 7.0 14 31863
- 60.0084 6 7 cbr 210 ------- 0 6.0 7.0 5 31854
+ 60.0084 6 7 cbr 210 ------- 0 6.0 7.0 15 31864
+ 60.00896 6 7 cbr 210 ------- 0 6.0 7.0 16 31865
+ 60.00952 6 7 cbr 210 ------- 0 6.0 7.0 17 31866
- 60.01008 6 7 cbr 210 ------- 0 6.0 7.0 6 31855
+ 60.01008 6 7 cbr 210 ------- 0 6.0 7.0 18 31867
+ 60.01064 6 7 cbr 210 ------- 0 6.0 7.0 19 31868
+ 60.0112 6 7 cbr 210 ------- 0 6.0 7.0 20 31869
r 60.01168 6 7 cbr 210 ------- 0 6.0 7.0 0 31849
- 60.01176 6 7 cbr 210 ------- 0 6.0 7.0 7 31856
+ 60.01176 6 7 cbr 210 ------- 0 6.0 7.0 21 31870
+ 60.01232 6 7 cbr 210 ------- 0 6.0 7.0 22 31871
+ 60.01288 6 7 cbr 210 ------- 0 6.0 7.0 23 31872
r 60.01336 6 7 cbr 210 ------- 0 6.0 7.0 1 31850
- 60.01344 6 7 cbr 210 ------- 0 6.0 7.0 8 31857
+ 60.01344 6 7 cbr 210 ------- 0 6.0 7.0 24 31873
+ 60.014 6 7 cbr 210 ------- 0 6.0 7.0 25 31874
+ 60.01456 6 7 cbr 210 ------- 0 6.0 7.0 26 31875
r 60.01504 6 7 cbr 210 ------- 0 6.0 7.0 2 31851
- 60.01512 6 7 cbr 210 ------- 0 6.0 7.0 9 31858
+ 60.01512 6 7 cbr 210 ------- 0 6.0 7.0 27 31876
+ 60.01568 6 7 cbr 210 ------- 0 6.0 7.0 28 31877
+ 60.01624 6 7 cbr 210 ------- 0 6.0 7.0 29 31878
r 60.01672 6 7 cbr 210 ------- 0 6.0 7.0 3 31852
- 60.0168 6 7 cbr 210 ------- 0 6.0 7.0 10 31859
+ 60.0168 6 7 cbr 210 ------- 0 6.0 7.0 30 31879
+ 60.01736 6 7 cbr 210 ------- 0 6.0 7.0 31 31880
+ 60.01792 6 7 cbr 210 ------- 0 6.0 7.0 32 31881
r 60.0184 6 7 cbr 210 ------- 0 6.0 7.0 4 31853
- 60.01848 6 7 cbr 210 ------- 0 6.0 7.0 11 31860
+ 60.01848 6 7 cbr 210 ------- 0 6.0 7.0 33 31882
+ 60.01904 6 7 cbr 210 ------- 0 6.0 7.0 34 31883
+ 60.0196 6 7 cbr 210 ------- 0 6.0 7.0 35 31884
r 60.02008 6 7 cbr 210 ------- 0 6.0 7.0 5 31854
- 60.02016 6 7 cbr 210 ------- 0 6.0 7.0 12 31861
+ 60.02016 6 7 cbr 210 ------- 0 6.0 7.0 36 31885
+ 60.02072 6 7 cbr 210 ------- 0 6.0 7.0 37 31886
+ 60.02128 6 7 cbr 210 ------- 0 6.0 7.0 38 31887
r 60.02176 6 7 cbr 210 ------- 0 6.0 7.0 6 31855
- 60.02184 6 7 cbr 210 ------- 0 6.0 7.0 13 31862
+ 60.02184 6 7 cbr 210 ------- 0 6.0 7.0 39 31888
+ 60.0224 6 7 cbr 210 ------- 0 6.0 7.0 40 31889
+ 60.02296 6 7 cbr 210 ------- 0 6.0 7.0 41 31890
r 60.02344 6 7 cbr 210 ------- 0 6.0 7.0 7 31856
- 60.02352 6 7 cbr 210 ------- 0 6.0 7.0 14 31863
+ 60.02352 6 7 cbr 210 ------- 0 6.0 7.0 42 31891
+ 60.02408 6 7 cbr 210 ------- 0 6.0 7.0 43 31892
+ 60.02464 6 7 cbr 210 ------- 0 6.0 7.0 44 31893
r 60.02512 6 7 cbr 210 ------- 0 6.0 7.0 8 31857
- 60.0252 6 7 cbr 210 ------- 0 6.0 7.0 15 31864
+ 60.0252 6 7 cbr 210 ------- 0 6.0 7.0 45 31894
+ 60.02576 6 7 cbr 210 ------- 0 6.0 7.0 46 31895
+ 60.02632 6 7 cbr 210 ------- 0 6.0 7.0 47 31896
r 60.0268 6 7 cbr 210 ------- 0 6.0 7.0 9 31858
- 60.02688 6 7 cbr 210 ------- 0 6.0 7.0 16 31865
+ 60.02688 6 7 cbr 210 ------- 0 6.0 7.0 48 31897
+ 60.02744 6 7 cbr 210 ------- 0 6.0 7.0 49 31898
+ 60.028 6 7 cbr 210 ------- 0 6.0 7.0 50 31899
r 60.02848 6 7 cbr 210 ------- 0 6.0 7.0 10 31859
- 60.02856 6 7 cbr 210 ------- 0 6.0 7.0 17 31866
+ 60.02856 6 7 cbr 210 ------- 0 6.0 7.0 51 31900
+ 60.02912 6 7 cbr 210 ------- 0 6.0 7.0 52 31901
+ 60.02968 6 7 cbr 210 ------- 0 6.0 7.0 53 31902
r 60.03016 6 7 cbr 210 ------- 0 6.0 7.0 11 31860
- 60.03024 6 7 cbr 210 ------- 0 6.0 7.0 18 31867
+ 60.03024 6 7 cbr 210 ------- 0 6.0 7.0 54 31903
+ 60.0308 6 7 cbr 210 ------- 0 6.0 7.0 55 31904
+ 60.03136 6 7 cbr 210 ------- 0 6.0 7.0 56 31905
r 60.03184 6 7 cbr 210 ------- 0 6.0 7.0 12 31861
- 60.03192 6 7 cbr 210 ------- 0 6.0 7.0 19 31868
+ 60.03192 6 7 cbr 210 ------- 0 6.0 7.0 57 31906
+ 60.03248 6 7 cbr 210 ------- 0 6.0 7.0 58 31907
+ 60.03304 6 7 cbr 210 ------- 0 6.0 7.0 59 31908
r 60.03352 6 7 cbr 210 ------- 0 6.0 7.0 13 31862
- 60.0336 6 7 cbr 210 ------- 0 6.0 7.0 20 31869
+ 60.0336 6 7 cbr 210 ------- 0 6.0 7.0 60 31909
+ 60.03416 6 7 cbr 210 ------- 0 6.0 7.0 61 31910
+ 60.03472 6 7 cbr 210 ------- 0 6.0 7.0 62 31911
r 60.0352 6 7 cbr 210 ------- 0 6.0 7.0 14 31863
- 60.03528 6 7 cbr 210 ------- 0 6.0 7.0 21 31870
+ 60.03528 6 7 cbr 210 ------- 0 6.0 7.0 63 31912
+ 60.03584 6 7 cbr 210 ------- 0 6.0 7.0 64 31913
+ 60.0364 6 7 cbr 210 ------- 0 6.0 7.0 65 31914
r 60.03688 6 7 cbr 210 ------- 0 6.0 7.0 15 31864
- 60.03696 6 7 cbr 210 ------- 0 6.0 7.0 22 31871
+ 60.03696 6 7 cbr 210 ------- 0 6.0 7.0 66 31915
+ 60.03752 6 7 cbr 210 ------- 0 6.0 7.0 67 31916
+ 60.03808 6 7 cbr 210 ------- 0 6.0 7.0 68 31917
r 60.03856 6 7 cbr 210 ------- 0 6.0 7.0 16 31865
- 60.03864 6 7 cbr 210 ------- 0 6.0 7.0 23 31872
+ 60.03864 6 7 cbr 210 ------- 0 6.0 7.0 69 31918
+ 60.0392 6 7 cbr 210 ------- 0 6.0 7.0 70 31919
+ 60.03976 6 7 cbr 210 ------- 0 6.0 7.0 71 31920
r 60.04024 6 7 cbr 210 ------- 0 6.0 7.0 17 31866
- 60.04032 6 7 cbr 210 ------- 0 6.0 7.0 24 31873
+ 60.04032 6 7 cbr 210 ------- 0 6.0 7.0 72 31921
+ 60.04088 6 7 cbr 210 ------- 0 6.0 7.0 73 31922
+ 60.04144 6 7 cbr 210 ------- 0 6.0 7.0 74 31923
d 60.04144 6 7 cbr 210 ------- 0 6.0 7.0 74 31923
r 60.04192 6 7 cbr 210 ------- 0 6.0 7.0 18 31867
- 60.042 6 7 cbr 210 ------- 0 6.0 7.0 25 31874
+ 60.042 6 7 cbr 210 ------- 0 6.0 7.0 75 31924
+ 60.04256 6 7 cbr 210 ------- 0 6.0 7.0 76 31925
d 60.04256 6 7 cbr 210 ------- 0 6.0 7.0 76 31925
+ 60.04312 6 7 cbr 210 ------- 0 6.0 7.0 77 31926
d 60.04312 6 7 cbr 210 ------- 0 6.0 7.0 77 31926
r 60.0436 6 7 cbr 210 ------- 0 6.0 7.0 19 31868
- 60.04368 6 7 cbr 210 ------- 0 6.0 7.0 26 31875
+ 60.04368 6 7 cbr 210 ------- 0 6.0 7.0 78 31927
+ 60.04424 6 7 cbr 210 ------- 0 6.0 7.0 79 31928
d 60.04424 6 7 cbr 210 ------- 0 6.0 7.0 79 31928
+ 60.0448 6 7 cbr 210 ------- 0 6.0 7.0 80 31929
d 60.0448 6 7 cbr 210 ------- 0 6.0 7.0 80 31929
r 60.04528 6 7 cbr 210 ------- 0 6.0 7.0 20 31869
- 60.04536 6 7 cbr 210 ------- 0 6.0 7.0 27 31876
+ 60.04536 6 7 cbr 210 ------- 0 6.0 7.0 81 31930
+ 60.04592 6 7 cbr 210 ------- 0 6.0 7.0 82 31931
d 60.04592 6 7 cbr 210 ------- 0 6.0 7.0 82 31931
+ 60.04648 6 7 cbr 210 ------- 0 6.0 7.0 83 31932
d 60.04648 6 7 cbr 210 ------- 0 6.0 7.0 83 31932
r 60.04696 6 7 cbr 210 ------- 0 6.0 7.0 21 31870
- 60.04704 6 7 cbr 210 ------- 0 6.0 7.0 28 31877
+ 60.04704 6 7 cbr 210 ------- 0 6.0 7.0 84 31933
+ 60.0476 6 7 cbr 210 ------- 0 6.0 7.0 85 31934
d 60.0476 6 7 cbr 210 ------- 0 6.0 7.0 85 31934
+ 60.04816 6 7 cbr 210 ------- 0 6.0 7.0 86 31935
d 60.04816 6 7 cbr 210 ------- 0 6.0 7.0 86 31935
r 60.04864 6 7 cbr 210 ------- 0 6.0 7.0 22 31871
- 60.04872 6 7 cbr 210 ------- 0 6.0 7.0 29 31878
+ 60.04872 6 7 cbr 210 ------- 0 6.0 7.0 87 31936
+ 60.04928 6 7 cbr 210 ------- 0 6.0 7.0 88 31937
d 60.04928 6 7 cbr 210 ------- 0 6.0 7.0 88 31937
+ 60.04984 6 7 cbr 210 ------- 0 6.0 7.0 89 31938
d 60.04984 6 7 cbr 210 ------- 0 6.0 7.0 89 31938
r 60.05032 6 7 cbr 210 ------- 0 6.0 7.0 23 31872
- 60.0504 6 7 cbr 210 ------- 0 6.0 7.0 30 31879
+ 60.0504 6 7 cbr 210 ------- 0 6.0 7.0 90 31939
+ 60.05096 6 7 cbr 210 ------- 0 6.0 7.0 91 31940
d 60.05096 6 7 cbr 210 ------- 0 6.0 7.0 91 31940
+ 60.05152 6 7 cbr 210 ------- 0 6.0 7.0 92 31941
d 60.05152 6 7 cbr 210 ------- 0 6.0 7.0 92 31941
r 60.052 6 7 cbr 210 ------- 0 6.0 7.0 24 31873
- 60.05208 6 7 cbr 210 ------- 0 6.0 7.0 31 31880
+ 60.05208 6 7 cbr 210 ------- 0 6.0 7.0 93 31942
+ 60.05264 6 7 cbr 210 ------- 0 6.0 7.0 94 31943
d 60.05264 6 7 cbr 210 ------- 0 6.0 7.0 94 31943
+ 60.0532 6 7 cbr 210 ------- 0 6.0 7.0 95 31944
d 60.0532 6 7 cbr 210 ------- 0 6.0 7.0 95 31944
r 60.05368 6 7 cbr 210 ------- 0 6.0 7.0 25 31874
- 60.05376 6 7 cbr 210 ------- 0 6.0 7.0 32 31881
+ 60.05376 6 7 cbr 210 ------- 0 6.0 7.0 96 31945
+ 60.05432 6 7 cbr 210 ------- 0 6.0 7.0 97 31946
d 60.05432 6 7 cbr 210 ------- 0 6.0 7.0 97 31946
+ 60.05488 6 7 cbr 210 ------- 0 6.0 7.0 98 31947
d 60.05488 6 7 cbr 210 ------- 0 6.0 7.0 98 31947
r 60.05536 6 7 cbr 210 ------- 0 6.0 7.0 26 31875
- 60.05544 6 7 cbr 210 ------- 0 6.0 7.0 33 31882
+ 60.05544 6 7 cbr 210 ------- 0 6.0 7.0 99 31948
+ 60.056 6 7 cbr 210 ------- 0 6.0 7.0 100 31949
d 60.056 6 7 cbr 210 ------- 0 6.0 7.0 100 31949
+ 60.05656 6 7 cbr 210 ------- 0 6.0 7.0 101 31950
d 60.05656 6 7 cbr 210 ------- 0 6.0 7.0 101 31950
r 60.05704 6 7 cbr 210 ------- 0 6.0 7.0 27 31876
- 60.05712 6 7 cbr 210 ------- 0 6.0 7.0 34 31883
+ 60.05712 6 7 cbr 210 ------- 0 6.0 7.0 102 31951
+ 60.05768 6 7 cbr 210 ------- 0 6.0 7.0 103 31952
d 60.05768 6 7 cbr 210 ------- 0 6.0 7.0 103 31952
+ 60.05824 6 7 cbr 210 ------- 0 6.0 7.0 104 31953
d 60.05824 6 7 cbr 210 ------- 0 6.0 7.0 104 31953
r 60.05872 6 7 cbr 210 ------- 0 6.0 7.0 28 31877
- 60.0588 6 7 cbr 210 ------- 0 6.0 7.0 35 31884
+ 60.0588 6 7 cbr 210 ------- 0 6.0 7.0 105 31954
+ 60.05936 6 7 cbr 210 ------- 0 6.0 7.0 106 31955
d 60.05936 6 7 cbr 210 ------- 0 6.0 7.0 106 31955
+ 60.05992 6 7 cbr 210 ------- 0 6.0 7.0 107 31956
d 60.05992 6 7 cbr 210 ------- 0 6.0 7.0 107 31956
r 60.0604 6 7 cbr 210 ------- 0 6.0 7.0 29 31878
- 60.06048 6 7 cbr 210 ------- 0 6.0 7.0 36 31885
+ 60.06048 6 7 cbr 210 ------- 0 6.0 7.0 108 31957
+ 60.06104 6 7 cbr 210 ------- 0 6.0 7.0 109 31958
d 60.06104 6 7 cbr 210 ------- 0 6.0 7.0 109 31958
+ 60.0616 6 7 cbr 210 ------- 0 6.0 7.0 110 31959
d 60.0616 6 7 cbr 210 ------- 0 6.0 7.0 110 31959
r 60.06208 6 7 cbr 210 ------- 0 6.0 7.0 30 31879
- 60.06216 6 7 cbr 210 ------- 0 6.0 7.0 37 31886
+ 60.06216 6 7 cbr 210 ------- 0 6.0 7.0 111 31960
+ 60.06272 6 7 cbr 210 ------- 0 6.0 7.0 112 31961
d 60.06272 6 7 cbr 210 ------- 0 6.0 7.0 112 31961
+ 60.06328 6 7 cbr 210 ------- 0 6.0 7.0 113 31962
d 60.06328 6 7 cbr 210 ------- 0 6.0 7.0 113 31962
r 60.06376 6 7 cbr 210 ------- 0 6.0 7.0 31 31880
- 60.06384 6 7 cbr 210 ------- 0 6.0 7.0 38 31887
+ 60.06384 6 7 cbr 210 ------- 0 6.0 7.0 114 31963
+ 60.0644 6 7 cbr 210 ------- 0 6.0 7.0 115 31964
d 60.0644 6 7 cbr 210 ------- 0 6.0 7.0 115 31964
+ 60.06496 6 7 cbr 210 ------- 0 6.0 7.0 116 31965
d 60.06496 6 7 cbr 210 ------- 0 6.0 7.0 116 31965
r 60.06544 6 7 cbr 210 ------- 0 6.0 7.0 32 31881
- 60.06552 6 7 cbr 210 ------- 0 6.0 7.0 39 31888
+ 60.06552 6 7 cbr 210 ------- 0 6.0 7.0 117 31966
+ 60.06608 6 7 cbr 210 ------- 0 6.0 7.0 118 31967
d 60.06608 6 7 cbr 210 ------- 0 6.0 7.0 118 31967
+ 60.06664 6 7 cbr 210 ------- 0 6.0 7.0 119 31968
d 60.06664 6 7 cbr 210 ------- 0 6.0 7.0 119 31968
r 60.06712 6 7 cbr 210 ------- 0 6.0 7.0 33 31882
- 60.0672 6 7 cbr 210 ------- 0 6.0 7.0 40 31889
+ 60.0672 6 7 cbr 210 ------- 0 6.0 7.0 120 31969
+ 60.06776 6 7 cbr 210 ------- 0 6.0 7.0 121 31970
d 60.06776 6 7 cbr 210 ------- 0 6.0 7.0 121 31970
+ 60.06832 6 7 cbr 210 ------- 0 6.0 7.0 122 31971
d 60.06832 6 7 cbr 210 ------- 0 6.0 7.0 122 31971
r 60.0688 6 7 cbr 210 ------- 0 6.0 7.0 34 31883
- 60.06888 6 7 cbr 210 ------- 0 6.0 7.0 41 31890
+ 60.06888 6 7 cbr 210 ------- 0 6.0 7.0 123 31972
+ 60.06944 6 7 cbr 210 ------- 0 6.0 7.0 124 31973
d 60.06944 6 7 cbr 210 ------- 0 6.0 7.0 124 31973
+ 60.07 6 7 cbr 210 ------- 0 6.0 7.0 125 31974
d 60.07 6 7 cbr 210 ------- 0 6.0 7.0 125 31974
r 60.07048 6 7 cbr 210 ------- 0 6.0 7.0 35 31884
- 60.07056 6 7 cbr 210 ------- 0 6.0 7.0 42 31891
+ 60.07056 6 7 cbr 210 ------- 0 6.0 7.0 126 31975
+ 60.07112 6 7 cbr 210 ------- 0 6.0 7.0 127 31976
d 60.07112 6 7 cbr 210 ------- 0 6.0 7.0 127 31976
+ 60.07168 6 7 cbr 210 ------- 0 6.0 7.0 128 31977
d 60.07168 6 7 cbr 210 ------- 0 6.0 7.0 128 31977
r 60.07216 6 7 cbr 210 ------- 0 6.0 7.0 36 31885
- 60.07224 6 7 cbr 210 ------- 0 6.0 7.0 43 31892
+ 60.07224 6 7 cbr 210 ------- 0 6.0 7.0 129 31978
+ 60.0728 6 7 cbr 210 ------- 0 6.0 7.0 130 31979
d 60.0728 6 7 cbr 210 ------- 0 6.0 7.0 130 31979
+ 60.07336 6 7 cbr 210 ------- 0 6.0 7.0 131 31980
d 60.07336 6 7 cbr 210 ------- 0 6.0 7.0 131 31980
r 60.07384 6 7 cbr 210 ------- 0 6.0 7.0 37 31886
- 60.07392 6 7 cbr 210 ------- 0 6.0 7.0 44 31893
+ 60.07392 6 7 cbr 210 ------- 0 6.0 7.0 132 31981
+ 60.07448 6 7 cbr 210 ------- 0 6.0 7.0 133 31982
d 60.07448 6 7 cbr 210 ------- 0 6.0 7.0 133 31982
+ 60.07504 6 7 cbr 210 ------- 0 6.0 7.0 134 31983
d 60.07504 6 7 cbr 210 ------- 0 6.0 7.0 134 31983
r 60.07552 6 7 cbr 210 ------- 0 6.0 7.0 38 31887
- 60.0756 6 7 cbr 210 ------- 0 6.0 7.0 45 31894
+ 60.0756 6 7 cbr 210 ------- 0 6.0 7.0 135 31984
+ 60.07616 6 7 cbr 210 ------- 0 6.0 7.0 136 31985
d 60.07616 6 7 cbr 210 ------- 0 6.0 7.0 136 31985
+ 60.07672 6 7 cbr 210 ------- 0 6.0 7.0 137 31986
d 60.07672 6 7 cbr 210 ------- 0 6.0 7.0 137 31986
r 60.0772 6 7 cbr 210 ------- 0 6.0 7.0 39 31888
- 60.07728 6 7 cbr 210 ------- 0 6.0 7.0 46 31895
+ 60.07728 6 7 cbr 210 ------- 0 6.0 7.0 138 31987
+ 60.07784 6 7 cbr 210 ------- 0 6.0 7.0 139 31988
d 60.07784 6 7 cbr 210 ------- 0 6.0 7.0 139 31988
+ 60.0784 6 7 cbr 210 ------- 0 6.0 7.0 140 31989
d 60.0784 6 7 cbr 210 ------- 0 6.0 7.0 140 31989
r 60.07888 6 7 cbr 210 ------- 0 6.0 7.0 40 31889
- 60.07896 6 7 cbr 210 ------- 0 6.0 7.0 47 31896
+ 60.07896 6 7 cbr 210 ------- 0 6.0 7.0 141 31990
+ 60.07952 6 7 cbr 210 ------- 0 6.0 7.0 142 31991
d 60.07952 6 7 cbr 210 ------- 0 6.0 7.0 142 31991
+ 60.08008 6 7 cbr 210 ------- 0 6.0 7.0 143 31992
d 60.08008 6 7 cbr 210 ------- 0 6.0 7.0 143 31992
r 60.08056 6 7 cbr 210 ------- 0 6.0 7.0 41 31890
- 60.08064 6 7 cbr 210 ------- 0 6.0 7.0 48 31897
+ 60.08064 6 7 cbr 210 ------- 0 6.0 7.0 144 31993
+ 60.0812 6 7 cbr 210 ------- 0 6.0 7.0 145 31994
d 60.0812 6 7 cbr 210 ------- 0 6.0 7.0 145 31994
+ 60.08176 6 7 cbr 210 ------- 0 6.0 7.0 146 31995
d 60.08176 6 7 cbr 210 ------- 0 6.0 7.0 146 31995
r 60.08224 6 7 cbr 210 ------- 0 6.0 7.0 42 31891
- 60.08232 6 7 cbr 210 ------- 0 6.0 7.0 49 31898
+ 60.08232 6 7 cbr 210 ------- 0 6.0 7.0 147 31996
+ 60.08288 6 7 cbr 210 ------- 0 6.0 7.0 148 31997
d 60.08288 6 7 cbr 210 ------- 0 6.0 7.0 148 31997
+ 60.08344 6 7 cbr 210 ------- 0 6.0 7.0 149 31998
d 60.08344 6 7 cbr 210 ------- 0 6.0 7.0 149 31998
r 60.08392 6 7 cbr 210 ------- 0 6.0 7.0 43 31892
- 60.084 6 7 cbr 210 ------- 0 6.0 7.0 50 31899
+ 60.084 6 7 cbr 210 ------- 0 6.0 7.0 150 31999
+ 60.08456 6 7 cbr 210 ------- 0 6.0 7.0 151 32000
d 60.08456 6 7 cbr 210 ------- 0 6.0 7.0 151 32000
+ 60.08512 6 7 cbr 210 ------- 0 6.0 7.0 152 32001
d 60.08512 6 7 cbr 210 ------- 0 6.0 7.0 152 32001
r 60.0856 6 7 cbr 210 ------- 0 6.0 7.0 44 31893
- 60.08568 6 7 cbr 210 ------- 0 6.0 7.0 51 31900
+ 60.08568 6 7 cbr 210 ------- 0 6.0 7.0 153 32002
+ 60.08624 6 7 cbr 210 ------- 0 6.0 7.0 154 32003
d 60.08624 6 7 cbr 210 ------- 0 6.0 7.0 154 32003
+ 60.0868 6 7 cbr 210 ------- 0 6.0 7.0 155 32004
d 60.0868 6 7 cbr 210 ------- 0 6.0 7.0 155 32004
r 60.08728 6 7 cbr 210 ------- 0 6.0 7.0 45 31894
- 60.08736 6 7 cbr 210 ------- 0 6.0 7.0 52 31901
+ 60.08736 6 7 cbr 210 ------- 0 6.0 7.0 156 32005
+ 60.08792 6 7 cbr 210 ------- 0 6.0 7.0 157 32006
d 60.08792 6 7 cbr 210 ------- 0 6.0 7.0 157 32006
+ 60.08848 6 7 cbr 210 ------- 0 6.0 7.0 158 32007
d 60.08848 6 7 cbr 210 ------- 0 6.0 7.0 158 32007
r 60.08896 6 7 cbr 210 ------- 0 6.0 7.0 46 31895
- 60.08904 6 7 cbr 210 ------- 0 6.0 7.0 53 31902
+ 60.08904 6 7 cbr 210 ------- 0 6.0 7.0 159 32008
+ 60.0896 6 7 cbr 210 ------- 0 6.0 7.0 160 32009
d 60.0896 6 7 cbr 210 ------- 0 6.0 7.0 160 32009
+ 60.09016 6 7 cbr 210 ------- 0 6.0 7.0 161 32010
d 60.09016 6 7 cbr 210 ------- 0 6.0 7.0 161 32010
r 60.09064 6 7 cbr 210 ------- 0 6.0 7.0 47 31896
- 60.09072 6 7 cbr 210 ------- 0 6.0 7.0 54 31903
+ 60.09072 6 7 cbr 210 ------- 0 6.0 7.0 162 32011
+ 60.09128 6 7 cbr 210 ------- 0 6.0 7.0 163 32012
d 60.09128 6 7 cbr 210 ------- 0 6.0 7.0 163 32012
+ 60.09184 6 7 cbr 210 ------- 0 6.0 7.0 164 32013
d 60.09184 6 7 cbr 210 ------- 0 6.0 7.0 164 32013
r 60.09232 6 7 cbr 210 ------- 0 6.0 7.0 48 31897
- 60.0924 6 7 cbr 210 ------- 0 6.0 7.0 55 31904
+ 60.0924 6 7 cbr 210 ------- 0 6.0 7.0 165 32014
+ 60.09296 6 7 cbr 210 ------- 0 6.0 7.0 166 32015
d 60.09296 6 7 cbr 210 ------- 0 6.0 7.0 166 32015
+ 60.09352 6 7 cbr 210 ------- 0 6.0 7.0 167 32016
d 60.09352 6 7 cbr 210 ------- 0 6.0 7.0 167 32016
r 60.094 6 7 cbr 210 ------- 0 6.0 7.0 49 31898
- 60.09408 6 7 cbr 210 ------- 0 6.0 7.0 56 31905
+ 60.09408 6 7 cbr 210 ------- 0 6.0 7.0 168 32017
+ 60.09464 6 7 cbr 210 ------- 0 6.0 7.0 169 32018
d 60.09464 6 7 cbr 210 ------- 0 6.0 7.0 169 32018
+ 60.0952 6 7 cbr 210 ------- 0 6.0 7.0 170 32019
d 60.0952 6 7 cbr 210 ------- 0 6.0 7.0 170 32019
r 60.09568 6 7 cbr 210 ------- 0 6.0 7.0 50 31899
- 60.09576 6 7 cbr 210 ------- 0 6.0 7.0 57 31906
+ 60.09576 6 7 cbr 210 ------- 0 6.0 7.0 171 32020
+ 60.09632 6 7 cbr 210 ------- 0 6.0 7.0 172 32021
d 60.09632 6 7 cbr 210 ------- 0 6.0 7.0 172 32021
+ 60.09688 6 7 cbr 210 ------- 0 6.0 7.0 173 32022
d 60.09688 6 7 cbr 210 ------- 0 6.0 7.0 173 32022
r 60.09736 6 7 cbr 210 ------- 0 6.0 7.0 51 31900
- 60.09744 6 7 cbr 210 ------- 0 6.0 7.0 58 31907
+ 60.09744 6 7 cbr 210 ------- 0 6.0 7.0 174 32023
+ 60.098 6 7 cbr 210 ------- 0 6.0 7.0 175 32024
d 60.098 6 7 cbr 210 ------- 0 6.0 7.0 175 32024
+ 60.09856 6 7 cbr 210 ------- 0 6.0 7.0 176 32025
d 60.09856 6 7 cbr 210 ------- 0 6.0 7.0 176 32025
r 60.09904 6 7 cbr 210 ------- 0 6.0 7.0 52 31901
- 60.09912 6 7 cbr 210 ------- 0 6.0 7.0 59 31908
+ 60.09912 6 7 cbr 210 ------- 0 6.0 7.0 177 32026
+ 60.09968 6 7 cbr 210 ------- 0 6.0 7.0 178 32027
d 60.09968 6 7 cbr 210 ------- 0 6.0 7.0 178 32027
+ 60.10024 6 7 cbr 210 ------- 0 6.0 7.0 179 32028
d 60.10024 6 7 cbr 210 ------- 0 6.0 7.0 179 32028
r 60.10072 6 7 cbr 210 ------- 0 6.0 7.0 53 31902
- 60.1008 6 7 cbr 210 ------- 0 6.0 7.0 60 31909
+ 60.1008 6 7 cbr 210 ------- 0 6.0 7.0 180 32029
+ 60.10136 6 7 cbr 210 ------- 0 6.0 7.0 181 32030
d 60.10136 6 7 cbr 210 ------- 0 6.0 7.0 181 32030
+ 60.10192 6 7 cbr 210 ------- 0 6.0 7.0 182 32031
d 60.10192 6 7 cbr 210 ------- 0 6.0 7.0 182 32031
r 60.1024 6 7 cbr 210 ------- 0 6.0 7.0 54 31903
- 60.10248 6 7 cbr 210 ------- 0 6.0 7.0 61 31910
+ 60.10248 6 7 cbr 210 ------- 0 6.0 7.0 183 32032
+ 60.10304 6 7 cbr 210 ------- 0 6.0 7.0 184 32033
d 60.10304 6 7 cbr 210 ------- 0 6.0 7.0 184 32033
+ 60.1036 6 7 cbr 210 ------- 0 6.0 7.0 185 32034
d 60.1036 6 7 cbr 210 ------- 0 6.0 7.0 185 32034
r 60.10408 6 7 cbr 210 ------- 0 6.0 7.0 55 31904
- 60.10416 6 7 cbr 210 ------- 0 6.0 7.0 62 31911
+ 60.10416 6 7 cbr 210 ------- 0 6.0 7.0 186 32035
+ 60.10472 6 7 cbr 210 ------- 0 6.0 7.0 187 32036
d 60.10472 6 7 cbr 210 ------- 0 6.0 7.0 187 32036
+ 60.10528 6 7 cbr 210 ------- 0 6.0 7.0 188 32037
d 60.10528 6 7 cbr 210 ------- 0 6.0 7.0 188 32037
r 60.10576 6 7 cbr 210 ------- 0 6.0 7.0 56 31905
- 60.10584 6 7 cbr 210 ------- 0 6.0 7.0 63 31912
+ 60.10584 6 7 cbr 210 ------- 0 6.0 7.0 189 32038
+ 60.1064 6 7 cbr 210 ------- 0 6.0 7.0 190 32039
d 60.1064 6 7 cbr 210 ------- 0 6.0 7.0 190 32039
+ 60.10696 6 7 cbr 210 ------- 0 6.0 7.0 191 32040
d 60.10696 6 7 cbr 210 ------- 0 6.0 7.0 191 32040
r 60.10744 6 7 cbr 210 ------- 0 6.0 7.0 57 31906
- 60.10752 6 7 cbr 210 ------- 0 6.0 7.0 64 31913
+ 60.10752 6 7 cbr 210 ------- 0 6.0 7.0 192 32041
+ 60.10808 6 7 cbr 210 ------- 0 6.0 7.0 193 32042
d 60.10808 6 7 cbr 210 ------- 0 6.0 7.0 193 32042
+ 60.10864 6 7 cbr 210 ------- 0 6.0 7.0 194 32043
d 60.10864 6 7 cbr 210 ------- 0 6.0 7.0 194 32043
r 60.10912 6 7 cbr 210 ------- 0 6.0 7.0 58 31907
- 60.1092 6 7 cbr 210 ------- 0 6.0 7.0 65 31914
+ 60.1092 6 7 cbr 210 ------- 0 6.0 7.0 195 32044
+ 60.10976 6 7 cbr 210 ------- 0 6.0 7.0 196 32045
d 60.10976 6 7 cbr 210 ------- 0 6.0 7.0 196 32045
+ 60.11032 6 7 cbr 210 ------- 0 6.0 7.0 197 32046
d 60.11032 6 7 cbr 210 ------- 0 6.0 7.0 197 32046
r 60.1108 6 7 cbr 210 ------- 0 6.0 7.0 59 31908
- 60.11088 6 7 cbr 210 ------- 0 6.0 7.0 66 31915
+ 60.11088 6 7 cbr 210 ------- 0 6.0 7.0 198 32047
+ 60.11144 6 7 cbr 210 ------- 0 6.0 7.0 199 32048
d 60.11144 6 7 cbr 210 ------- 0 6.0 7.0 199 32048
+ 60.112 6 7 cbr 210 ------- 0 6.0 7.0 200 32049
d 60.112 6 7 cbr 210 ------- 0 6.0 7.0 200 32049
r 60.11248 6 7 cbr 210 ------- 0 6.0 7.0 60 31909
- 60.11256 6 7 cbr 210 ------- 0 6.0 7.0 67 31916
+ 60.11256 6 7 cbr 210 ------- 0 6.0 7.0 201 32050
+ 60.11312 6 7 cbr 210 ------- 0 6.0 7.0 202 32051
d 60.11312 6 7 cbr 210 ------- 0 6.0 7.0 202 32051
+ 60.11368 6 7 cbr 210 ------- 0 6.0 7.0 203 32052
d 60.11368 6 7 cbr 210 ------- 0 6.0 7.0 203 32052
r 60.11416 6 7 cbr 210 ------- 0 6.0 7.0 61 31910
- 60.11424 6 7 cbr 210 ------- 0 6.0 7.0 68 31917
+ 60.11424 6 7 cbr 210 ------- 0 6.0 7.0 204 32053
+ 60.1148 6 7 cbr 210 ------- 0 6.0 7.0 205 32054
d 60.1148 6 7 cbr 210 ------- 0 6.0 7.0 205 32054
+ 60.11536 6 7 cbr 210 ------- 0 6.0 7.0 206 32055
d 60.11536 6 7 cbr 210 ------- 0 6.0 7.0 206 32055
r 60.11584 6 7 cbr 210 ------- 0 6.0 7.0 62 31911
- 60.11592 6 7 cbr 210 ------- 0 6.0 7.0 69 31918
+ 60.11592 6 7 cbr 210 ------- 0 6.0 7.0 207 32056
+ 60.11648 6 7 cbr 210 ------- 0 6.0 7.0 208 32057
d 60.11648 6 7 cbr 210 ------- 0 6.0 7.0 208 32057
+ 60.11704 6 7 cbr 210 ------- 0 6.0 7.0 209 32058
d 60.11704 6 7 cbr 210 ------- 0 6.0 7.0 209 32058
r 60.11752 6 7 cbr 210 ------- 0 6.0 7.0 63 31912
- 60.1176 6 7 cbr 210 ------- 0 6.0 7.0 70 31919
+ 60.1176 6 7 cbr 210 ------- 0 6.0 7.0 210 32059
+ 60.11816 6 7 cbr 210 ------- 0 6.0 7.0 211 32060
d 60.11816 6 7 cbr 210 ------- 0 6.0 7.0 211 32060
+ 60.11872 6 7 cbr 210 ------- 0 6.0 7.0 212 32061
d 60.11872 6 7 cbr 210 ------- 0 6.0 7.0 212 32061
r 60.1192 6 7 cbr 210 ------- 0 6.0 7.0 64 31913
- 60.11928 6 7 cbr 210 ------- 0 6.0 7.0 71 31920
+ 60.11928 6 7 cbr 210 ------- 0 6.0 7.0 213 32062
+ 60.11984 6 7 cbr 210 ------- 0 6.0 7.0 214 32063
d 60.11984 6 7 cbr 210 ------- 0 6.0 7.0 214 32063
+ 60.1204 6 7 cbr 210 ------- 0 6.0 7.0 215 32064
d 60.1204 6 7 cbr 210 ------- 0 6.0 7.0 215 32064
r 60.12088 6 7 cbr 210 ------- 0 6.0 7.0 65 31914
- 60.12096 6 7 cbr 210 ------- 0 6.0 7.0 72 31921
+ 60.12096 6 7 cbr 210 ------- 0 6.0 7.0 216 32065
+ 60.12152 6 7 cbr 210 ------- 0 6.0 7.0 217 32066
d 60.12152 6 7 cbr 210 ------- 0 6.0 7.0 217 32066
+ 60.12208 6 7 cbr 210 ------- 0 6.0 7.0 218 32067
d 60.12208 6 7 cbr 210 ------- 0 6.0 7.0 218 32067
r 60.12256 6 7 cbr 210 ------- 0 6.0 7.0 66 31915
- 60.12264 6 7 cbr 210 ------- 0 6.0 7.0 73 31922
+ 60.12264 6 7 cbr 210 ------- 0 6.0 7.0 219 32068
+ 60.1232 6 7 cbr 210 ------- 0 6.0 7.0 220 32069
d 60.1232 6 7 cbr 210 ------- 0 6.0 7.0 220 32069
+ 60.12376 6 7 cbr 210 ------- 0 6.0 7.0 221 32070
d 60.12376 6 7 cbr 210 ------- 0 6.0 7.0 221 32070
r 60.12424 6 7 cbr 210 ------- 0 6.0 7.0 67 31916
- 60.12432 6 7 cbr 210 ------- 0 6.0 7.0 75 31924
+ 60.12432 6 7 cbr 210 ------- 0 6.0 7.0 222 32071
+ 60.12488 6 7 cbr 210 ------- 0 6.0 7.0 223 32072
d 60.12488 6 7 cbr 210 ------- 0 6.0 7.0 223 32072
+ 60.12544 6 7 cbr 210 ------- 0 6.0 7.0 224 32073
d 60.12544 6 7 cbr 210 ------- 0 6.0 7.0 224 32073
r 60.12592 6 7 cbr 210 ------- 0 6.0 7.0 68 31917
- 60.126 6 7 cbr 210 ------- 0 6.0 7.0 78 31927
+ 60.126 6 7 cbr 210 ------- 0 6.0 7.0 225 32074
+ 60.12656 6 7 cbr 210 ------- 0 6.0 7.0 226 32075
d 60.12656 6 7 cbr 210 ------- 0 6.0 7.0 226 32075
+ 60.12712 6 7 cbr 210 ------- 0 6.0 7.0 227 32076
d 60.12712 6 7 cbr 210 ------- 0 6.0 7.0 227 32076
r 60.1276 6 7 cbr 210 ------- 0 6.0 7.0 69 31918
- 60.12768 6 7 cbr 210 ------- 0 6.0 7.0 81 31930
+ 60.12768 6 7 cbr 210 ------- 0 6.0 7.0 228 32077
+ 60.12824 6 7 cbr 210 ------- 0 6.0 7.0 229 32078
d 60.12824 6 7 cbr 210 ------- 0 6.0 7.0 229 32078
+ 60.1288 6 7 cbr 210 ------- 0 6.0 7.0 230 32079
d 60.1288 6 7 cbr 210 ------- 0 6.0 7.0 230 32079
r 60.12928 6 7 cbr 210 ------- 0 6.0 7.0 70 31919
- 60.12936 6 7 cbr 210 ------- 0 6.0 7.0 84 31933
+ 60.12936 6 7 cbr 210 ------- 0 6.0 7.0 231 32080
+ 60.12992 6 7 cbr 210 ------- 0 6.0 7.0 232 32081
d 60.12992 6 7 cbr 210 ------- 0 6.0 7.0 232 32081
+ 60.13048 6 7 cbr 210 ------- 0 6.0 7.0 233 32082
d 60.13048 6 7 cbr 210 ------- 0 6.0 7.0 233 32082
r 60.13096 6 7 cbr 210 ------- 0 6.0 7.0 71 31920
- 60.13104 6 7 cbr 210 ------- 0 6.0 7.0 87 31936
+ 60.13104 6 7 cbr 210 ------- 0 6.0 7.0 234 32083
+ 60.1316 6 7 cbr 210 ------- 0 6.0 7.0 235 32084
d 60.1316 6 7 cbr 210 ------- 0 6.0 7.0 235 32084
+ 60.13216 6 7 cbr 210 ------- 0 6.0 7.0 236 32085
d 60.13216 6 7 cbr 210 ------- 0 6.0 7.0 236 32085
r 60.13264 6 7 cbr 210 ------- 0 6.0 7.0 72 31921
- 60.13272 6 7 cbr 210 ------- 0 6.0 7.0 90 31939
+ 60.13272 6 7 cbr 210 ------- 0 6.0 7.0 237 32086
+ 60.13328 6 7 cbr 210 ------- 0 6.0 7.0 238 32087
d 60.13328 6 7 cbr 210 ------- 0 6.0 7.0 238 32087
+ 60.13384 6 7 cbr 210 ------- 0 6.0 7.0 239 32088
d 60.13384 6 7 cbr 210 ------- 0 6.0 7.0 239 32088
r 60.13432 6 7 cbr 210 ------- 0 6.0 7.0 73 31922
- 60.1344 6 7 cbr 210 ------- 0 6.0 7.0 93 31942
+ 60.1344 6 7 cbr 210 ------- 0 6.0 7.0 240 32089
+ 60.13496 6 7 cbr 210 ------- 0 6.0 7.0 241 32090
d 60.13496 6 7 cbr 210 ------- 0 6.0 7.0 241 32090
+ 60.13552 6 7 cbr 210 ------- 0 6.0 7.0 242 32091
d 60.13552 6 7 cbr 210 ------- 0 6.0 7.0 242 32091
r 60.136 6 7 cbr 210 ------- 0 6.0 7.0 75 31924
- 60.13608 6 7 cbr 210 ------- 0 6.0 7.0 96 31945
+ 60.13608 6 7 cbr 210 ------- 0 6.0 7.0 243 32092
+ 60.13664 6 7 cbr 210 ------- 0 6.0 7.0 244 32093
d 60.13664 6 7 cbr 210 ------- 0 6.0 7.0 244 32093
+ 60.1372 6 7 cbr 210 ------- 0 6.0 7.0 245 32094
d 60.1372 6 7 cbr 210 ------- 0 6.0 7.0 245 32094
r 60.13768 6 7 cbr 210 ------- 0 6.0 7.0 78 31927
- 60.13776 6 7 cbr 210 ------- 0 6.0 7.0 99 31948
+ 60.13776 6 7 cbr 210 ------- 0 6.0 7.0 246 32095
+ 60.13832 6 7 cbr 210 ------- 0 6.0 7.0 247 32096
d 60.13832 6 7 cbr 210 ------- 0 6.0 7.0 247 32096
+ 60.13888 6 7 cbr 210 ------- 0 6.0 7.0 248 32097
d 60.13888 6 7 cbr 210 ------- 0 6.0 7.0 248 32097
r 60.13936 6 7 cbr 210 ------- 0 6.0 7.0 81 31930
- 60.13944 6 7 cbr 210 ------- 0 6.0 7.0 102 31951
+ 60.13944 6 7 cbr 210 ------- 0 6.0 7.0 249 32098
+ 60.14 6 7 cbr 210 ------- 0 6.0 7.0 250 32099
d 60.14 6 7 cbr 210 ------- 0 6.0 7.0 250 32099
+ 60.14056 6 7 cbr 210 ------- 0 6.0 7.0 251 32100
d 60.14056 6 7 cbr 210 ------- 0 6.0 7.0 251 32100
r 60.14104 6 7 cbr 210 ------- 0 6.0 7.0 84 31933
- 60.14112 6 7 cbr 210 ------- 0 6.0 7.0 105 31954
+ 60.14112 6 7 cbr 210 ------- 0 6.0 7.0 252 32101
+ 60.14168 6 7 cbr 210 ------- 0 6.0 7.0 253 32102
d 60.14168 6 7 cbr 210 ------- 0 6.0 7.0 253 32102
+ 60.14224 6 7 cbr 210 ------- 0 6.0 7.0 254 32103
d 60.14224 6 7 cbr 210 ------- 0 6.0 7.0 254 32103
r 60.14272 6 7 cbr 210 ------- 0 6.0 7.0 87 31936
- 60.1428 6 7 cbr 210 ------- 0 6.0 7.0 108 31957
+ 60.1428 6 7 cbr 210 ------- 0 6.0 7.0 255 32104
+ 60.14336 6 7 cbr 210 ------- 0 6.0 7.0 256 32105
d 60.14336 6 7 cbr 210 ------- 0 6.0 7.0 256 32105
+ 60.14392 6 7 cbr 210 ------- 0 6.0 7.0 257 32106
d 60.14392 6 7 cbr 210 ------- 0 6.0 7.0 257 32106
r 60.1444 6 7 cbr 210 ------- 0 6.0 7.0 90 31939
- 60.14448 6 7 cbr 210 ------- 0 6.0 7.0 111 31960
+ 60.14448 6 7 cbr 210 ------- 0 6.0 7.0 258 32107
+ 60.14504 6 7 cbr 210 ------- 0 6.0 7.0 259 32108
d 60.14504 6 7 cbr 210 ------- 0 6.0 7.0 259 32108
+ 60.1456 6 7 cbr 210 ------- 0 6.0 7.0 260 32109
d 60.1456 6 7 cbr 210 ------- 0 6.0 7.0 260 32109
r 60.14608 6 7 cbr 210 ------- 0 6.0 7.0 93 31942
- 60.14616 6 7 cbr 210 ------- 0 6.0 7.0 114 31963
+ 60.14616 6 7 cbr 210 ------- 0 6.0 7.0 261 32110
+ 60.14672 6 7 cbr 210 ------- 0 6.0 7.0 262 32111
d 60.14672 6 7 cbr 210 ------- 0 6.0 7.0 262 32111
+ 60.14728 6 7 cbr 210 ------- 0 6.0 7.0 263 32112
d 60.14728 6 7 cbr 210 ------- 0 6.0 7.0 263 32112
r 60.14776 6 7 cbr 210 ------- 0 6.0 7.0 96 31945
- 60.14784 6 7 cbr 210 ------- 0 6.0 7.0 117 31966
+ 60.14784 6 7 cbr 210 ------- 0 6.0 7.0 264 32113
+ 60.1484 6 7 cbr 210 ------- 0 6.0 7.0 265 32114
d 60.1484 6 7 cbr 210 ------- 0 6.0 7.0 265 32114
+ 60.14896 6 7 cbr 210 ------- 0 6.0 7.0 266 32115
d 60.14896 6 7 cbr 210 ------- 0 6.0 7.0 266 32115
r 60.14944 6 7 cbr 210 ------- 0 6.0 7.0 99 31948
- 60.14952 6 7 cbr 210 ------- 0 6.0 7.0 120 31969
+ 60.14952 6 7 cbr 210 ------- 0 6.0 7.0 267 32116
+ 60.15008 6 7 cbr 210 ------- 0 6.0 7.0 268 32117
d 60.15008 6 7 cbr 210 ------- 0 6.0 7.0 268 32117
+ 60.15064 6 7 cbr 210 ------- 0 6.0 7.0 269 32118
d 60.15064 6 7 cbr 210 ------- 0 6.0 7.0 269 32118
r 60.15112 6 7 cbr 210 ------- 0 6.0 7.0 102 31951
- 60.1512 6 7 cbr 210 ------- 0 6.0 7.0 123 31972
+ 60.1512 6 7 cbr 210 ------- 0 6.0 7.0 270 32119
+ 60.15176 6 7 cbr 210 ------- 0 6.0 7.0 271 32120
d 60.15176 6 7 cbr 210 ------- 0 6.0 7.0 271 32120
+ 60.15232 6 7 cbr 210 ------- 0 6.0 7.0 272 32121
d 60.15232 6 7 cbr 210 ------- 0 6.0 7.0 272 32121
r 60.1528 6 7 cbr 210 ------- 0 6.0 7.0 105 31954
- 60.15288 6 7 cbr 210 ------- 0 6.0 7.0 126 31975
+ 60.15288 6 7 cbr 210 ------- 0 6.0 7.0 273 32122
+ 60.15344 6 7 cbr 210 ------- 0 6.0 7.0 274 32123
d 60.15344 6 7 cbr 210 ------- 0 6.0 7.0 274 32123
+ 60.154 6 7 cbr 210 ------- 0 6.0 7.0 275 32124
d 60.154 6 7 cbr 210 ------- 0 6.0 7.0 275 32124
r 60.15448 6 7 cbr 210 ------- 0 6.0 7.0 108 31957
- 60.15456 6 7 cbr 210 ------- 0 6.0 7.0 129 31978
+ 60.15456 6 7 cbr 210 ------- 0 6.0 7.0 276 32125
+ 60.15512 6 7 cbr 210 ------- 0 6.0 7.0 277 32126
d 60.15512 6 7 cbr 210 ------- 0 6.0 7.0 277 32126
+ 60.15568 6 7 cbr 210 ------- 0 6.0 7.0 278 32127
d 60.15568 6 7 cbr 210 ------- 0 6.0 7.0 278 32127
r 60.15616 6 7 cbr 210 ------- 0 6.0 7.0 111 31960
- 60.15624 6 7 cbr 210 ------- 0 6.0 7.0 132 31981