+ 60 6 7 poisson 500 ------- 0 6.0 7.0 0 13413
- 60 6 7 poisson 500 ------- 0 6.0 7.0 0 13413
+ 60.001162 6 7 poisson 500 ------- 0 6.0 7.0 1 13414
+ 60.002541 6 7 poisson 500 ------- 0 6.0 7.0 2 13415
- 60.004 6 7 poisson 500 ------- 0 6.0 7.0 1 13414
+ 60.004152 6 7 poisson 500 ------- 0 6.0 7.0 3 13416
+ 60.00486 6 7 poisson 500 ------- 0 6.0 7.0 4 13417
+ 60.005945 6 7 poisson 500 ------- 0 6.0 7.0 5 13418
+ 60.00667 6 7 poisson 500 ------- 0 6.0 7.0 6 13419
- 60.008 6 7 poisson 500 ------- 0 6.0 7.0 2 13415
+ 60.008678 6 7 poisson 500 ------- 0 6.0 7.0 7 13420
+ 60.010855 6 7 poisson 500 ------- 0 6.0 7.0 8 13421
+ 60.011597 6 7 poisson 500 ------- 0 6.0 7.0 9 13422
+ 60.011988 6 7 poisson 500 ------- 0 6.0 7.0 10 13423
- 60.012 6 7 poisson 500 ------- 0 6.0 7.0 3 13416
r 60.014 6 7 poisson 500 ------- 0 6.0 7.0 0 13413
+ 60.014637 6 7 poisson 500 ------- 0 6.0 7.0 11 13424
- 60.016 6 7 poisson 500 ------- 0 6.0 7.0 4 13417
+ 60.016468 6 7 poisson 500 ------- 0 6.0 7.0 12 13425
+ 60.017432 6 7 poisson 500 ------- 0 6.0 7.0 13 13426
r 60.018 6 7 poisson 500 ------- 0 6.0 7.0 1 13414
+ 60.018128 6 7 poisson 500 ------- 0 6.0 7.0 14 13427
+ 60.01877 6 7 poisson 500 ------- 0 6.0 7.0 15 13428
+ 60.019857 6 7 poisson 500 ------- 0 6.0 7.0 16 13429
- 60.02 6 7 poisson 500 ------- 0 6.0 7.0 5 13418
r 60.022 6 7 poisson 500 ------- 0 6.0 7.0 2 13415
+ 60.022068 6 7 poisson 500 ------- 0 6.0 7.0 17 13430
+ 60.022545 6 7 poisson 500 ------- 0 6.0 7.0 18 13431
+ 60.023165 6 7 poisson 500 ------- 0 6.0 7.0 19 13432
+ 60.023203 6 7 poisson 500 ------- 0 6.0 7.0 20 13433
+ 60.023836 6 7 poisson 500 ------- 0 6.0 7.0 21 13434
- 60.024 6 7 poisson 500 ------- 0 6.0 7.0 6 13419
+ 60.024947 6 7 poisson 500 ------- 0 6.0 7.0 22 13435
r 60.026 6 7 poisson 500 ------- 0 6.0 7.0 3 13416
- 60.028 6 7 poisson 500 ------- 0 6.0 7.0 7 13420
+ 60.028306 6 7 poisson 500 ------- 0 6.0 7.0 23 13436
+ 60.02867 6 7 poisson 500 ------- 0 6.0 7.0 24 13437
+ 60.028737 6 7 poisson 500 ------- 0 6.0 7.0 25 13438
+ 60.028815 6 7 poisson 500 ------- 0 6.0 7.0 26 13439
r 60.03 6 7 poisson 500 ------- 0 6.0 7.0 4 13417
+ 60.030365 6 7 poisson 500 ------- 0 6.0 7.0 27 13440
+ 60.030435 6 7 poisson 500 ------- 0 6.0 7.0 28 13441
+ 60.031121 6 7 poisson 500 ------- 0 6.0 7.0 29 13442
+ 60.031991 6 7 poisson 500 ------- 0 6.0 7.0 30 13443
- 60.032 6 7 poisson 500 ------- 0 6.0 7.0 8 13421
+ 60.032618 6 7 poisson 500 ------- 0 6.0 7.0 31 13444
r 60.034 6 7 poisson 500 ------- 0 6.0 7.0 5 13418
+ 60.035241 6 7 poisson 500 ------- 0 6.0 7.0 32 13445
- 60.036 6 7 poisson 500 ------- 0 6.0 7.0 9 13422
+ 60.036222 6 7 poisson 500 ------- 0 6.0 7.0 33 13446
+ 60.036938 6 7 poisson 500 ------- 0 6.0 7.0 34 13447
+ 60.037951 6 7 poisson 500 ------- 0 6.0 7.0 35 13448
r 60.038 6 7 poisson 500 ------- 0 6.0 7.0 6 13419
+ 60.03979 6 7 poisson 500 ------- 0 6.0 7.0 36 13449
- 60.04 6 7 poisson 500 ------- 0 6.0 7.0 10 13423
r 60.042 6 7 poisson 500 ------- 0 6.0 7.0 7 13420
+ 60.042713 6 7 poisson 500 ------- 0 6.0 7.0 37 13450
+ 60.043418 6 7 poisson 500 ------- 0 6.0 7.0 38 13451
+ 60.043905 6 7 poisson 500 ------- 0 6.0 7.0 39 13452
- 60.044 6 7 poisson 500 ------- 0 6.0 7.0 11 13424
+ 60.044081 6 7 poisson 500 ------- 0 6.0 7.0 40 13453
+ 60.044746 6 7 poisson 500 ------- 0 6.0 7.0 41 13454
+ 60.044975 6 7 poisson 500 ------- 0 6.0 7.0 42 13455
r 60.046 6 7 poisson 500 ------- 0 6.0 7.0 8 13421
- 60.048 6 7 poisson 500 ------- 0 6.0 7.0 12 13425
r 60.05 6 7 poisson 500 ------- 0 6.0 7.0 9 13422
+ 60.051039 6 7 poisson 500 ------- 0 6.0 7.0 43 13456
+ 60.051402 6 7 poisson 500 ------- 0 6.0 7.0 44 13457
+ 60.051672 6 7 poisson 500 ------- 0 6.0 7.0 45 13458
- 60.052 6 7 poisson 500 ------- 0 6.0 7.0 13 13426
+ 60.053314 6 7 poisson 500 ------- 0 6.0 7.0 46 13459
r 60.054 6 7 poisson 500 ------- 0 6.0 7.0 10 13423
- 60.056 6 7 poisson 500 ------- 0 6.0 7.0 14 13427
+ 60.056957 6 7 poisson 500 ------- 0 6.0 7.0 47 13460
+ 60.057968 6 7 poisson 500 ------- 0 6.0 7.0 48 13461
r 60.058 6 7 poisson 500 ------- 0 6.0 7.0 11 13424
- 60.06 6 7 poisson 500 ------- 0 6.0 7.0 15 13428
+ 60.060243 6 7 poisson 500 ------- 0 6.0 7.0 49 13462
r 60.062 6 7 poisson 500 ------- 0 6.0 7.0 12 13425
+ 60.063407 6 7 poisson 500 ------- 0 6.0 7.0 50 13463
- 60.064 6 7 poisson 500 ------- 0 6.0 7.0 16 13429
+ 60.06402 6 7 poisson 500 ------- 0 6.0 7.0 51 13464
+ 60.065835 6 7 poisson 500 ------- 0 6.0 7.0 52 13465
r 60.066 6 7 poisson 500 ------- 0 6.0 7.0 13 13426
+ 60.067288 6 7 poisson 500 ------- 0 6.0 7.0 53 13466
- 60.068 6 7 poisson 500 ------- 0 6.0 7.0 17 13430
+ 60.069839 6 7 poisson 500 ------- 0 6.0 7.0 54 13467
r 60.07 6 7 poisson 500 ------- 0 6.0 7.0 14 13427
+ 60.071446 6 7 poisson 500 ------- 0 6.0 7.0 55 13468
+ 60.071713 6 7 poisson 500 ------- 0 6.0 7.0 56 13469
- 60.072 6 7 poisson 500 ------- 0 6.0 7.0 18 13431
+ 60.073217 6 7 poisson 500 ------- 0 6.0 7.0 57 13470
r 60.074 6 7 poisson 500 ------- 0 6.0 7.0 15 13428
+ 60.074823 6 7 poisson 500 ------- 0 6.0 7.0 58 13471
+ 60.074824 6 7 poisson 500 ------- 0 6.0 7.0 59 13472
- 60.076 6 7 poisson 500 ------- 0 6.0 7.0 19 13432
+ 60.077321 6 7 poisson 500 ------- 0 6.0 7.0 60 13473
+ 60.07762 6 7 poisson 500 ------- 0 6.0 7.0 61 13474
+ 60.077744 6 7 poisson 500 ------- 0 6.0 7.0 62 13475
r 60.078 6 7 poisson 500 ------- 0 6.0 7.0 16 13429
+ 60.079806 6 7 poisson 500 ------- 0 6.0 7.0 63 13476
- 60.08 6 7 poisson 500 ------- 0 6.0 7.0 20 13433
r 60.082 6 7 poisson 500 ------- 0 6.0 7.0 17 13430
+ 60.082187 6 7 poisson 500 ------- 0 6.0 7.0 64 13477
+ 60.082286 6 7 poisson 500 ------- 0 6.0 7.0 65 13478
+ 60.082504 6 7 poisson 500 ------- 0 6.0 7.0 66 13479
+ 60.083243 6 7 poisson 500 ------- 0 6.0 7.0 67 13480
+ 60.083372 6 7 poisson 500 ------- 0 6.0 7.0 68 13481
- 60.084 6 7 poisson 500 ------- 0 6.0 7.0 21 13434
+ 60.08447 6 7 poisson 500 ------- 0 6.0 7.0 69 13482
+ 60.084983 6 7 poisson 500 ------- 0 6.0 7.0 70 13483
+ 60.085181 6 7 poisson 500 ------- 0 6.0 7.0 71 13484
d 60.085181 6 7 poisson 500 ------- 0 6.0 7.0 71 13484
r 60.086 6 7 poisson 500 ------- 0 6.0 7.0 18 13431
+ 60.087699 6 7 poisson 500 ------- 0 6.0 7.0 72 13485
d 60.087699 6 7 poisson 500 ------- 0 6.0 7.0 72 13485
- 60.088 6 7 poisson 500 ------- 0 6.0 7.0 22 13435
+ 60.088951 6 7 poisson 500 ------- 0 6.0 7.0 73 13486
+ 60.089649 6 7 poisson 500 ------- 0 6.0 7.0 74 13487
d 60.089649 6 7 poisson 500 ------- 0 6.0 7.0 74 13487
r 60.09 6 7 poisson 500 ------- 0 6.0 7.0 19 13432
+ 60.090196 6 7 poisson 500 ------- 0 6.0 7.0 75 13488
d 60.090196 6 7 poisson 500 ------- 0 6.0 7.0 75 13488
+ 60.090211 6 7 poisson 500 ------- 0 6.0 7.0 76 13489
d 60.090211 6 7 poisson 500 ------- 0 6.0 7.0 76 13489
- 60.092 6 7 poisson 500 ------- 0 6.0 7.0 23 13436
r 60.094 6 7 poisson 500 ------- 0 6.0 7.0 20 13433
+ 60.094428 6 7 poisson 500 ------- 0 6.0 7.0 77 13490
+ 60.094442 6 7 poisson 500 ------- 0 6.0 7.0 78 13491
d 60.094442 6 7 poisson 500 ------- 0 6.0 7.0 78 13491
- 60.096 6 7 poisson 500 ------- 0 6.0 7.0 24 13437
r 60.098 6 7 poisson 500 ------- 0 6.0 7.0 21 13434
+ 60.098435 6 7 poisson 500 ------- 0 6.0 7.0 79 13492
- 60.1 6 7 poisson 500 ------- 0 6.0 7.0 25 13438
+ 60.100099 6 7 poisson 500 ------- 0 6.0 7.0 80 13493
r 60.102 6 7 poisson 500 ------- 0 6.0 7.0 22 13435
- 60.104 6 7 poisson 500 ------- 0 6.0 7.0 26 13439
+ 60.104148 6 7 poisson 500 ------- 0 6.0 7.0 81 13494
+ 60.104971 6 7 poisson 500 ------- 0 6.0 7.0 82 13495
d 60.104971 6 7 poisson 500 ------- 0 6.0 7.0 82 13495
+ 60.105307 6 7 poisson 500 ------- 0 6.0 7.0 83 13496
d 60.105307 6 7 poisson 500 ------- 0 6.0 7.0 83 13496
+ 60.105555 6 7 poisson 500 ------- 0 6.0 7.0 84 13497
d 60.105555 6 7 poisson 500 ------- 0 6.0 7.0 84 13497
+ 60.105941 6 7 poisson 500 ------- 0 6.0 7.0 85 13498
d 60.105941 6 7 poisson 500 ------- 0 6.0 7.0 85 13498
r 60.106 6 7 poisson 500 ------- 0 6.0 7.0 23 13436
+ 60.106992 6 7 poisson 500 ------- 0 6.0 7.0 86 13499
d 60.106992 6 7 poisson 500 ------- 0 6.0 7.0 86 13499
+ 60.107851 6 7 poisson 500 ------- 0 6.0 7.0 87 13500
d 60.107851 6 7 poisson 500 ------- 0 6.0 7.0 87 13500
- 60.108 6 7 poisson 500 ------- 0 6.0 7.0 27 13440
+ 60.10852 6 7 poisson 500 ------- 0 6.0 7.0 88 13501
+ 60.109996 6 7 poisson 500 ------- 0 6.0 7.0 89 13502
d 60.109996 6 7 poisson 500 ------- 0 6.0 7.0 89 13502
r 60.11 6 7 poisson 500 ------- 0 6.0 7.0 24 13437
+ 60.111051 6 7 poisson 500 ------- 0 6.0 7.0 90 13503
d 60.111051 6 7 poisson 500 ------- 0 6.0 7.0 90 13503
+ 60.111566 6 7 poisson 500 ------- 0 6.0 7.0 91 13504
d 60.111566 6 7 poisson 500 ------- 0 6.0 7.0 91 13504
- 60.112 6 7 poisson 500 ------- 0 6.0 7.0 28 13441
+ 60.112279 6 7 poisson 500 ------- 0 6.0 7.0 92 13505
+ 60.112459 6 7 poisson 500 ------- 0 6.0 7.0 93 13506
d 60.112459 6 7 poisson 500 ------- 0 6.0 7.0 93 13506
r 60.114 6 7 poisson 500 ------- 0 6.0 7.0 25 13438
+ 60.114152 6 7 poisson 500 ------- 0 6.0 7.0 94 13507
d 60.114152 6 7 poisson 500 ------- 0 6.0 7.0 94 13507
- 60.116 6 7 poisson 500 ------- 0 6.0 7.0 29 13442
+ 60.117231 6 7 poisson 500 ------- 0 6.0 7.0 95 13508
+ 60.117686 6 7 poisson 500 ------- 0 6.0 7.0 96 13509
d 60.117686 6 7 poisson 500 ------- 0 6.0 7.0 96 13509
r 60.118 6 7 poisson 500 ------- 0 6.0 7.0 26 13439
+ 60.118131 6 7 poisson 500 ------- 0 6.0 7.0 97 13510
d 60.118131 6 7 poisson 500 ------- 0 6.0 7.0 97 13510
- 60.12 6 7 poisson 500 ------- 0 6.0 7.0 30 13443
+ 60.121416 6 7 poisson 500 ------- 0 6.0 7.0 98 13511
r 60.122 6 7 poisson 500 ------- 0 6.0 7.0 27 13440
+ 60.122626 6 7 poisson 500 ------- 0 6.0 7.0 99 13512
d 60.122626 6 7 poisson 500 ------- 0 6.0 7.0 99 13512
- 60.124 6 7 poisson 500 ------- 0 6.0 7.0 31 13444
+ 60.124394 6 7 poisson 500 ------- 0 6.0 7.0 100 13513
+ 60.124566 6 7 poisson 500 ------- 0 6.0 7.0 101 13514
d 60.124566 6 7 poisson 500 ------- 0 6.0 7.0 101 13514
+ 60.12484 6 7 poisson 500 ------- 0 6.0 7.0 102 13515
d 60.12484 6 7 poisson 500 ------- 0 6.0 7.0 102 13515
r 60.126 6 7 poisson 500 ------- 0 6.0 7.0 28 13441
- 60.128 6 7 poisson 500 ------- 0 6.0 7.0 32 13445
+ 60.128932 6 7 poisson 500 ------- 0 6.0 7.0 103 13516
r 60.13 6 7 poisson 500 ------- 0 6.0 7.0 29 13442
+ 60.130603 6 7 poisson 500 ------- 0 6.0 7.0 104 13517
d 60.130603 6 7 poisson 500 ------- 0 6.0 7.0 104 13517
- 60.132 6 7 poisson 500 ------- 0 6.0 7.0 33 13446
r 60.134 6 7 poisson 500 ------- 0 6.0 7.0 30 13443
- 60.136 6 7 poisson 500 ------- 0 6.0 7.0 34 13447
r 60.138 6 7 poisson 500 ------- 0 6.0 7.0 31 13444
+ 60.138869 6 7 poisson 500 ------- 0 6.0 7.0 105 13518
+ 60.139277 6 7 poisson 500 ------- 0 6.0 7.0 106 13519
+ 60.139542 6 7 poisson 500 ------- 0 6.0 7.0 107 13520
d 60.139542 6 7 poisson 500 ------- 0 6.0 7.0 107 13520
- 60.14 6 7 poisson 500 ------- 0 6.0 7.0 35 13448
+ 60.141476 6 7 poisson 500 ------- 0 6.0 7.0 108 13521
r 60.142 6 7 poisson 500 ------- 0 6.0 7.0 32 13445
+ 60.142029 6 7 poisson 500 ------- 0 6.0 7.0 109 13522
d 60.142029 6 7 poisson 500 ------- 0 6.0 7.0 109 13522
+ 60.142074 6 7 poisson 500 ------- 0 6.0 7.0 110 13523
d 60.142074 6 7 poisson 500 ------- 0 6.0 7.0 110 13523
+ 60.142502 6 7 poisson 500 ------- 0 6.0 7.0 111 13524
d 60.142502 6 7 poisson 500 ------- 0 6.0 7.0 111 13524
+ 60.143129 6 7 poisson 500 ------- 0 6.0 7.0 112 13525
d 60.143129 6 7 poisson 500 ------- 0 6.0 7.0 112 13525
+ 60.143198 6 7 poisson 500 ------- 0 6.0 7.0 113 13526
d 60.143198 6 7 poisson 500 ------- 0 6.0 7.0 113 13526
- 60.144 6 7 poisson 500 ------- 0 6.0 7.0 36 13449
+ 60.145527 6 7 poisson 500 ------- 0 6.0 7.0 114 13527
r 60.146 6 7 poisson 500 ------- 0 6.0 7.0 33 13446
+ 60.146835 6 7 poisson 500 ------- 0 6.0 7.0 115 13528
d 60.146835 6 7 poisson 500 ------- 0 6.0 7.0 115 13528
+ 60.147566 6 7 poisson 500 ------- 0 6.0 7.0 116 13529
d 60.147566 6 7 poisson 500 ------- 0 6.0 7.0 116 13529
- 60.148 6 7 poisson 500 ------- 0 6.0 7.0 37 13450
+ 60.149956 6 7 poisson 500 ------- 0 6.0 7.0 117 13530
r 60.15 6 7 poisson 500 ------- 0 6.0 7.0 34 13447
+ 60.150887 6 7 poisson 500 ------- 0 6.0 7.0 118 13531
d 60.150887 6 7 poisson 500 ------- 0 6.0 7.0 118 13531
- 60.152 6 7 poisson 500 ------- 0 6.0 7.0 38 13451
r 60.154 6 7 poisson 500 ------- 0 6.0 7.0 35 13448
+ 60.155834 6 7 poisson 500 ------- 0 6.0 7.0 119 13532
- 60.156 6 7 poisson 500 ------- 0 6.0 7.0 39 13452
r 60.158 6 7 poisson 500 ------- 0 6.0 7.0 36 13449
- 60.16 6 7 poisson 500 ------- 0 6.0 7.0 40 13453
+ 60.160383 6 7 poisson 500 ------- 0 6.0 7.0 120 13533
+ 60.16198 6 7 poisson 500 ------- 0 6.0 7.0 121 13534
r 60.162 6 7 poisson 500 ------- 0 6.0 7.0 37 13450
- 60.164 6 7 poisson 500 ------- 0 6.0 7.0 41 13454
+ 60.164215 6 7 poisson 500 ------- 0 6.0 7.0 122 13535
+ 60.164809 6 7 poisson 500 ------- 0 6.0 7.0 123 13536
d 60.164809 6 7 poisson 500 ------- 0 6.0 7.0 123 13536
+ 60.165294 6 7 poisson 500 ------- 0 6.0 7.0 124 13537
d 60.165294 6 7 poisson 500 ------- 0 6.0 7.0 124 13537
r 60.166 6 7 poisson 500 ------- 0 6.0 7.0 38 13451
+ 60.166333 6 7 poisson 500 ------- 0 6.0 7.0 125 13538
d 60.166333 6 7 poisson 500 ------- 0 6.0 7.0 125 13538
- 60.168 6 7 poisson 500 ------- 0 6.0 7.0 42 13455
+ 60.168676 6 7 poisson 500 ------- 0 6.0 7.0 126 13539
r 60.17 6 7 poisson 500 ------- 0 6.0 7.0 39 13452
+ 60.170036 6 7 poisson 500 ------- 0 6.0 7.0 127 13540
d 60.170036 6 7 poisson 500 ------- 0 6.0 7.0 127 13540
+ 60.170179 6 7 poisson 500 ------- 0 6.0 7.0 128 13541
d 60.170179 6 7 poisson 500 ------- 0 6.0 7.0 128 13541
+ 60.17159 6 7 poisson 500 ------- 0 6.0 7.0 129 13542
d 60.17159 6 7 poisson 500 ------- 0 6.0 7.0 129 13542
+ 60.171709 6 7 poisson 500 ------- 0 6.0 7.0 130 13543
d 60.171709 6 7 poisson 500 ------- 0 6.0 7.0 130 13543
+ 60.171997 6 7 poisson 500 ------- 0 6.0 7.0 131 13544
d 60.171997 6 7 poisson 500 ------- 0 6.0 7.0 131 13544
- 60.172 6 7 poisson 500 ------- 0 6.0 7.0 43 13456
+ 60.172223 6 7 poisson 500 ------- 0 6.0 7.0 132 13545
+ 60.173255 6 7 poisson 500 ------- 0 6.0 7.0 133 13546
d 60.173255 6 7 poisson 500 ------- 0 6.0 7.0 133 13546
r 60.174 6 7 poisson 500 ------- 0 6.0 7.0 40 13453
- 60.176 6 7 poisson 500 ------- 0 6.0 7.0 44 13457
+ 60.176719 6 7 poisson 500 ------- 0 6.0 7.0 134 13547
+ 60.177144 6 7 poisson 500 ------- 0 6.0 7.0 135 13548
d 60.177144 6 7 poisson 500 ------- 0 6.0 7.0 135 13548
r 60.178 6 7 poisson 500 ------- 0 6.0 7.0 41 13454
- 60.18 6 7 poisson 500 ------- 0 6.0 7.0 45 13458
+ 60.18142 6 7 poisson 500 ------- 0 6.0 7.0 136 13549
+ 60.181455 6 7 poisson 500 ------- 0 6.0 7.0 137 13550
d 60.181455 6 7 poisson 500 ------- 0 6.0 7.0 137 13550
r 60.182 6 7 poisson 500 ------- 0 6.0 7.0 42 13455
+ 60.183365 6 7 poisson 500 ------- 0 6.0 7.0 138 13551
d 60.183365 6 7 poisson 500 ------- 0 6.0 7.0 138 13551
- 60.184 6 7 poisson 500 ------- 0 6.0 7.0 46 13459
r 60.186 6 7 poisson 500 ------- 0 6.0 7.0 43 13456
+ 60.186389 6 7 poisson 500 ------- 0 6.0 7.0 139 13552
- 60.188 6 7 poisson 500 ------- 0 6.0 7.0 47 13460
+ 60.188318 6 7 poisson 500 ------- 0 6.0 7.0 140 13553
+ 60.188518 6 7 poisson 500 ------- 0 6.0 7.0 141 13554
d 60.188518 6 7 poisson 500 ------- 0 6.0 7.0 141 13554
+ 60.188868 6 7 poisson 500 ------- 0 6.0 7.0 142 13555
d 60.188868 6 7 poisson 500 ------- 0 6.0 7.0 142 13555
r 60.19 6 7 poisson 500 ------- 0 6.0 7.0 44 13457
+ 60.190035 6 7 poisson 500 ------- 0 6.0 7.0 143 13556
d 60.190035 6 7 poisson 500 ------- 0 6.0 7.0 143 13556
- 60.192 6 7 poisson 500 ------- 0 6.0 7.0 48 13461
r 60.194 6 7 poisson 500 ------- 0 6.0 7.0 45 13458
+ 60.194923 6 7 poisson 500 ------- 0 6.0 7.0 144 13557
- 60.196 6 7 poisson 500 ------- 0 6.0 7.0 49 13462
+ 60.197161 6 7 poisson 500 ------- 0 6.0 7.0 145 13558
r 60.198 6 7 poisson 500 ------- 0 6.0 7.0 46 13459
+ 60.19935 6 7 poisson 500 ------- 0 6.0 7.0 146 13559
d 60.19935 6 7 poisson 500 ------- 0 6.0 7.0 146 13559
- 60.2 6 7 poisson 500 ------- 0 6.0 7.0 50 13463
+ 60.200649 6 7 poisson 500 ------- 0 6.0 7.0 147 13560
+ 60.201916 6 7 poisson 500 ------- 0 6.0 7.0 148 13561
d 60.201916 6 7 poisson 500 ------- 0 6.0 7.0 148 13561
r 60.202 6 7 poisson 500 ------- 0 6.0 7.0 47 13460
+ 60.203631 6 7 poisson 500 ------- 0 6.0 7.0 149 13562
d 60.203631 6 7 poisson 500 ------- 0 6.0 7.0 149 13562
- 60.204 6 7 poisson 500 ------- 0 6.0 7.0 51 13464
+ 60.204007 6 7 poisson 500 ------- 0 6.0 7.0 150 13563
+ 60.204095 6 7 poisson 500 ------- 0 6.0 7.0 151 13564
d 60.204095 6 7 poisson 500 ------- 0 6.0 7.0 151 13564
+ 60.204694 6 7 poisson 500 ------- 0 6.0 7.0 152 13565
d 60.204694 6 7 poisson 500 ------- 0 6.0 7.0 152 13565
+ 60.205812 6 7 poisson 500 ------- 0 6.0 7.0 153 13566
d 60.205812 6 7 poisson 500 ------- 0 6.0 7.0 153 13566
r 60.206 6 7 poisson 500 ------- 0 6.0 7.0 48 13461
+ 60.206617 6 7 poisson 500 ------- 0 6.0 7.0 154 13567
d 60.206617 6 7 poisson 500 ------- 0 6.0 7.0 154 13567
+ 60.206796 6 7 poisson 500 ------- 0 6.0 7.0 155 13568
d 60.206796 6 7 poisson 500 ------- 0 6.0 7.0 155 13568
- 60.208 6 7 poisson 500 ------- 0 6.0 7.0 52 13465
+ 60.209685 6 7 poisson 500 ------- 0 6.0 7.0 156 13569
r 60.21 6 7 poisson 500 ------- 0 6.0 7.0 49 13462
+ 60.210944 6 7 poisson 500 ------- 0 6.0 7.0 157 13570
d 60.210944 6 7 poisson 500 ------- 0 6.0 7.0 157 13570
- 60.212 6 7 poisson 500 ------- 0 6.0 7.0 53 13466
+ 60.212584 6 7 poisson 500 ------- 0 6.0 7.0 158 13571
+ 60.212622 6 7 poisson 500 ------- 0 6.0 7.0 159 13572
d 60.212622 6 7 poisson 500 ------- 0 6.0 7.0 159 13572
r 60.214 6 7 poisson 500 ------- 0 6.0 7.0 50 13463
+ 60.214011 6 7 poisson 500 ------- 0 6.0 7.0 160 13573
d 60.214011 6 7 poisson 500 ------- 0 6.0 7.0 160 13573
- 60.216 6 7 poisson 500 ------- 0 6.0 7.0 54 13467
+ 60.217639 6 7 poisson 500 ------- 0 6.0 7.0 161 13574
+ 60.217833 6 7 poisson 500 ------- 0 6.0 7.0 162 13575
d 60.217833 6 7 poisson 500 ------- 0 6.0 7.0 162 13575
r 60.218 6 7 poisson 500 ------- 0 6.0 7.0 51 13464
+ 60.218508 6 7 poisson 500 ------- 0 6.0 7.0 163 13576
d 60.218508 6 7 poisson 500 ------- 0 6.0 7.0 163 13576
+ 60.218621 6 7 poisson 500 ------- 0 6.0 7.0 164 13577
d 60.218621 6 7 poisson 500 ------- 0 6.0 7.0 164 13577
+ 60.219922 6 7 poisson 500 ------- 0 6.0 7.0 165 13578
d 60.219922 6 7 poisson 500 ------- 0 6.0 7.0 165 13578
- 60.22 6 7 poisson 500 ------- 0 6.0 7.0 55 13468
+ 60.221858 6 7 poisson 500 ------- 0 6.0 7.0 166 13579
r 60.222 6 7 poisson 500 ------- 0 6.0 7.0 52 13465
+ 60.22281 6 7 poisson 500 ------- 0 6.0 7.0 167 13580
d 60.22281 6 7 poisson 500 ------- 0 6.0 7.0 167 13580
+ 60.223476 6 7 poisson 500 ------- 0 6.0 7.0 168 13581
d 60.223476 6 7 poisson 500 ------- 0 6.0 7.0 168 13581
- 60.224 6 7 poisson 500 ------- 0 6.0 7.0 56 13469
r 60.226 6 7 poisson 500 ------- 0 6.0 7.0 53 13466
+ 60.227933 6 7 poisson 500 ------- 0 6.0 7.0 169 13582
- 60.228 6 7 poisson 500 ------- 0 6.0 7.0 57 13470
+ 60.228626 6 7 poisson 500 ------- 0 6.0 7.0 170 13583
+ 60.229056 6 7 poisson 500 ------- 0 6.0 7.0 171 13584
d 60.229056 6 7 poisson 500 ------- 0 6.0 7.0 171 13584
+ 60.229282 6 7 poisson 500 ------- 0 6.0 7.0 172 13585
d 60.229282 6 7 poisson 500 ------- 0 6.0 7.0 172 13585
r 60.23 6 7 poisson 500 ------- 0 6.0 7.0 54 13467
+ 60.230077 6 7 poisson 500 ------- 0 6.0 7.0 173 13586
d 60.230077 6 7 poisson 500 ------- 0 6.0 7.0 173 13586
- 60.232 6 7 poisson 500 ------- 0 6.0 7.0 58 13471
+ 60.233371 6 7 poisson 500 ------- 0 6.0 7.0 174 13587
+ 60.233427 6 7 poisson 500 ------- 0 6.0 7.0 175 13588
d 60.233427 6 7 poisson 500 ------- 0 6.0 7.0 175 13588
r 60.234 6 7 poisson 500 ------- 0 6.0 7.0 55 13468
+ 60.235584 6 7 poisson 500 ------- 0 6.0 7.0 176 13589
d 60.235584 6 7 poisson 500 ------- 0 6.0 7.0 176 13589
- 60.236 6 7 poisson 500 ------- 0 6.0 7.0 59 13472
r 60.238 6 7 poisson 500 ------- 0 6.0 7.0 56 13469
+ 60.238018 6 7 poisson 500 ------- 0 6.0 7.0 177 13590
+ 60.239537 6 7 poisson 500 ------- 0 6.0 7.0 178 13591
d 60.239537 6 7 poisson 500 ------- 0 6.0 7.0 178 13591
+ 60.239888 6 7 poisson 500 ------- 0 6.0 7.0 179 13592
d 60.239888 6 7 poisson 500 ------- 0 6.0 7.0 179 13592
- 60.24 6 7 poisson 500 ------- 0 6.0 7.0 60 13473
+ 60.240302 6 7 poisson 500 ------- 0 6.0 7.0 180 13593
r 60.242 6 7 poisson 500 ------- 0 6.0 7.0 57 13470
+ 60.243999 6 7 poisson 500 ------- 0 6.0 7.0 181 13594
d 60.243999 6 7 poisson 500 ------- 0 6.0 7.0 181 13594
- 60.244 6 7 poisson 500 ------- 0 6.0 7.0 61 13474
r 60.246 6 7 poisson 500 ------- 0 6.0 7.0 58 13471
+ 60.247487 6 7 poisson 500 ------- 0 6.0 7.0 182 13595
- 60.248 6 7 poisson 500 ------- 0 6.0 7.0 62 13475
r 60.25 6 7 poisson 500 ------- 0 6.0 7.0 59 13472
- 60.252 6 7 poisson 500 ------- 0 6.0 7.0 63 13476
+ 60.252497 6 7 poisson 500 ------- 0 6.0 7.0 183 13596
+ 60.25375 6 7 poisson 500 ------- 0 6.0 7.0 184 13597
r 60.254 6 7 poisson 500 ------- 0 6.0 7.0 60 13473
+ 60.254106 6 7 poisson 500 ------- 0 6.0 7.0 185 13598
d 60.254106 6 7 poisson 500 ------- 0 6.0 7.0 185 13598
+ 60.254124 6 7 poisson 500 ------- 0 6.0 7.0 186 13599
d 60.254124 6 7 poisson 500 ------- 0 6.0 7.0 186 13599
+ 60.254126 6 7 poisson 500 ------- 0 6.0 7.0 187 13600
d 60.254126 6 7 poisson 500 ------- 0 6.0 7.0 187 13600
+ 60.254784 6 7 poisson 500 ------- 0 6.0 7.0 188 13601
d 60.254784 6 7 poisson 500 ------- 0 6.0 7.0 188 13601
+ 60.255653 6 7 poisson 500 ------- 0 6.0 7.0 189 13602
d 60.255653 6 7 poisson 500 ------- 0 6.0 7.0 189 13602
- 60.256 6 7 poisson 500 ------- 0 6.0 7.0 64 13477
+ 60.257695 6 7 poisson 500 ------- 0 6.0 7.0 190 13603
r 60.258 6 7 poisson 500 ------- 0 6.0 7.0 61 13474
+ 60.258875 6 7 poisson 500 ------- 0 6.0 7.0 191 13604
d 60.258875 6 7 poisson 500 ------- 0 6.0 7.0 191 13604
- 60.26 6 7 poisson 500 ------- 0 6.0 7.0 65 13478
+ 60.261368 6 7 poisson 500 ------- 0 6.0 7.0 192 13605
+ 60.261402 6 7 poisson 500 ------- 0 6.0 7.0 193 13606
d 60.261402 6 7 poisson 500 ------- 0 6.0 7.0 193 13606
r 60.262 6 7 poisson 500 ------- 0 6.0 7.0 62 13475
- 60.264 6 7 poisson 500 ------- 0 6.0 7.0 66 13479
+ 60.264696 6 7 poisson 500 ------- 0 6.0 7.0 194 13607
+ 60.265114 6 7 poisson 500 ------- 0 6.0 7.0 195 13608
d 60.265114 6 7 poisson 500 ------- 0 6.0 7.0 195 13608
r 60.266 6 7 poisson 500 ------- 0 6.0 7.0 63 13476
+ 60.266093 6 7 poisson 500 ------- 0 6.0 7.0 196 13609
d 60.266093 6 7 poisson 500 ------- 0 6.0 7.0 196 13609
+ 60.26631 6 7 poisson 500 ------- 0 6.0 7.0 197 13610
d 60.26631 6 7 poisson 500 ------- 0 6.0 7.0 197 13610
+ 60.266503 6 7 poisson 500 ------- 0 6.0 7.0 198 13611
d 60.266503 6 7 poisson 500 ------- 0 6.0 7.0 198 13611
+ 60.267189 6 7 poisson 500 ------- 0 6.0 7.0 199 13612
d 60.267189 6 7 poisson 500 ------- 0 6.0 7.0 199 13612
- 60.268 6 7 poisson 500 ------- 0 6.0 7.0 67 13480
r 60.27 6 7 poisson 500 ------- 0 6.0 7.0 64 13477
+ 60.271746 6 7 poisson 500 ------- 0 6.0 7.0 200 13613
- 60.272 6 7 poisson 500 ------- 0 6.0 7.0 68 13481
+ 60.272266 6 7 poisson 500 ------- 0 6.0 7.0 201 13614
+ 60.273573 6 7 poisson 500 ------- 0 6.0 7.0 202 13615
d 60.273573 6 7 poisson 500 ------- 0 6.0 7.0 202 13615
+ 60.273633 6 7 poisson 500 ------- 0 6.0 7.0 203 13616
d 60.273633 6 7 poisson 500 ------- 0 6.0 7.0 203 13616
+ 60.273755 6 7 poisson 500 ------- 0 6.0 7.0 204 13617
d 60.273755 6 7 poisson 500 ------- 0 6.0 7.0 204 13617
r 60.274 6 7 poisson 500 ------- 0 6.0 7.0 65 13478
+ 60.275385 6 7 poisson 500 ------- 0 6.0 7.0 205 13618
d 60.275385 6 7 poisson 500 ------- 0 6.0 7.0 205 13618
- 60.276 6 7 poisson 500 ------- 0 6.0 7.0 69 13482
r 60.278 6 7 poisson 500 ------- 0 6.0 7.0 66 13479
+ 60.278218 6 7 poisson 500 ------- 0 6.0 7.0 206 13619
+ 60.279554 6 7 poisson 500 ------- 0 6.0 7.0 207 13620
d 60.279554 6 7 poisson 500 ------- 0 6.0 7.0 207 13620
+ 60.279904 6 7 poisson 500 ------- 0 6.0 7.0 208 13621
d 60.279904 6 7 poisson 500 ------- 0 6.0 7.0 208 13621
- 60.28 6 7 poisson 500 ------- 0 6.0 7.0 70 13483
+ 60.280044 6 7 poisson 500 ------- 0 6.0 7.0 209 13622
r 60.282 6 7 poisson 500 ------- 0 6.0 7.0 67 13480
+ 60.282902 6 7 poisson 500 ------- 0 6.0 7.0 210 13623
d 60.282902 6 7 poisson 500 ------- 0 6.0 7.0 210 13623
- 60.284 6 7 poisson 500 ------- 0 6.0 7.0 73 13486
+ 60.284083 6 7 poisson 500 ------- 0 6.0 7.0 211 13624
+ 60.284602 6 7 poisson 500 ------- 0 6.0 7.0 212 13625
d 60.284602 6 7 poisson 500 ------- 0 6.0 7.0 212 13625
+ 60.28488 6 7 poisson 500 ------- 0 6.0 7.0 213 13626
d 60.28488 6 7 poisson 500 ------- 0 6.0 7.0 213 13626
r 60.286 6 7 poisson 500 ------- 0 6.0 7.0 68 13481
+ 60.286824 6 7 poisson 500 ------- 0 6.0 7.0 214 13627
d 60.286824 6 7 poisson 500 ------- 0 6.0 7.0 214 13627
+ 60.286918 6 7 poisson 500 ------- 0 6.0 7.0 215 13628
d 60.286918 6 7 poisson 500 ------- 0 6.0 7.0 215 13628
+ 60.287549 6 7 poisson 500 ------- 0 6.0 7.0 216 13629
d 60.287549 6 7 poisson 500 ------- 0 6.0 7.0 216 13629
- 60.288 6 7 poisson 500 ------- 0 6.0 7.0 77 13490
+ 60.289734 6 7 poisson 500 ------- 0 6.0 7.0 217 13630
r 60.29 6 7 poisson 500 ------- 0 6.0 7.0 69 13482
+ 60.291427 6 7 poisson 500 ------- 0 6.0 7.0 218 13631
d 60.291427 6 7 poisson 500 ------- 0 6.0 7.0 218 13631
+ 60.291632 6 7 poisson 500 ------- 0 6.0 7.0 219 13632
d 60.291632 6 7 poisson 500 ------- 0 6.0 7.0 219 13632
- 60.292 6 7 poisson 500 ------- 0 6.0 7.0 79 13492
+ 60.293717 6 7 poisson 500 ------- 0 6.0 7.0 220 13633
r 60.294 6 7 poisson 500 ------- 0 6.0 7.0 70 13483
+ 60.294128 6 7 poisson 500 ------- 0 6.0 7.0 221 13634
d 60.294128 6 7 poisson 500 ------- 0 6.0 7.0 221 13634
+ 60.29545 6 7 poisson 500 ------- 0 6.0 7.0 222 13635
d 60.29545 6 7 poisson 500 ------- 0 6.0 7.0 222 13635
+ 60.295784 6 7 poisson 500 ------- 0 6.0 7.0 223 13636
d 60.295784 6 7 poisson 500 ------- 0 6.0 7.0 223 13636
- 60.296 6 7 poisson 500 ------- 0 6.0 7.0 80 13493
+ 60.296844 6 7 poisson 500 ------- 0 6.0 7.0 224 13637
+ 60.296889 6 7 poisson 500 ------- 0 6.0 7.0 225 13638
d 60.296889 6 7 poisson 500 ------- 0 6.0 7.0 225 13638
+ 60.297992 6 7 poisson 500 ------- 0 6.0 7.0 226 13639
d 60.297992 6 7 poisson 500 ------- 0 6.0 7.0 226 13639
r 60.298 6 7 poisson 500 ------- 0 6.0 7.0 73 13486
- 60.3 6 7 poisson 500 ------- 0 6.0 7.0 81 13494
+ 60.300751 6 7 poisson 500 ------- 0 6.0 7.0 227 13640
+ 60.301411 6 7 poisson 500 ------- 0 6.0 7.0 228 13641
d 60.301411 6 7 poisson 500 ------- 0 6.0 7.0 228 13641
r 60.302 6 7 poisson 500 ------- 0 6.0 7.0 77 13490
+ 60.302925 6 7 poisson 500 ------- 0 6.0 7.0 229 13642
d 60.302925 6 7 poisson 500 ------- 0 6.0 7.0 229 13642
+ 60.303317 6 7 poisson 500 ------- 0 6.0 7.0 230 13643
d 60.303317 6 7 poisson 500 ------- 0 6.0 7.0 230 13643
+ 60.303636 6 7 poisson 500 ------- 0 6.0 7.0 231 13644
d 60.303636 6 7 poisson 500 ------- 0 6.0 7.0 231 13644
- 60.304 6 7 poisson 500 ------- 0 6.0 7.0 88 13501
+ 60.304692 6 7 poisson 500 ------- 0 6.0 7.0 232 13645
+ 60.305186 6 7 poisson 500 ------- 0 6.0 7.0 233 13646
d 60.305186 6 7 poisson 500 ------- 0 6.0 7.0 233 13646
r 60.306 6 7 poisson 500 ------- 0 6.0 7.0 79 13492
+ 60.306582 6 7 poisson 500 ------- 0 6.0 7.0 234 13647
d 60.306582 6 7 poisson 500 ------- 0 6.0 7.0 234 13647
- 60.308 6 7 poisson 500 ------- 0 6.0 7.0 92 13505
+ 60.308513 6 7 poisson 500 ------- 0 6.0 7.0 235 13648
+ 60.308905 6 7 poisson 500 ------- 0 6.0 7.0 236 13649
d 60.308905 6 7 poisson 500 ------- 0 6.0 7.0 236 13649
r 60.31 6 7 poisson 500 ------- 0 6.0 7.0 80 13493
+ 60.31072 6 7 poisson 500 ------- 0 6.0 7.0 237 13650
d 60.31072 6 7 poisson 500 ------- 0 6.0 7.0 237 13650
+ 60.311572 6 7 poisson 500 ------- 0 6.0 7.0 238 13651
d 60.311572 6 7 poisson 500 ------- 0 6.0 7.0 238 13651
- 60.312 6 7 poisson 500 ------- 0 6.0 7.0 95 13508
+ 60.312645 6 7 poisson 500 ------- 0 6.0 7.0 239 13652
+ 60.312998 6 7 poisson 500 ------- 0 6.0 7.0 240 13653
d 60.312998 6 7 poisson 500 ------- 0 6.0 7.0 240 13653
r 60.314 6 7 poisson 500 ------- 0 6.0 7.0 81 13494
+ 60.314442 6 7 poisson 500 ------- 0 6.0 7.0 241 13654
d 60.314442 6 7 poisson 500 ------- 0 6.0 7.0 241 13654
+ 60.314607 6 7 poisson 500 ------- 0 6.0 7.0 242 13655
d 60.314607 6 7 poisson 500 ------- 0 6.0 7.0 242 13655
+ 60.315758 6 7 poisson 500 ------- 0 6.0 7.0 243 13656
d 60.315758 6 7 poisson 500 ------- 0 6.0 7.0 243 13656
- 60.316 6 7 poisson 500 ------- 0 6.0 7.0 98 13511
+ 60.317499 6 7 poisson 500 ------- 0 6.0 7.0 244 13657
+ 60.317815 6 7 poisson 500 ------- 0 6.0 7.0 245 13658
d 60.317815 6 7 poisson 500 ------- 0 6.0 7.0 245 13658
r 60.318 6 7 poisson 500 ------- 0 6.0 7.0 88 13501
+ 60.318258 6 7 poisson 500 ------- 0 6.0 7.0 246 13659
d 60.318258 6 7 poisson 500 ------- 0 6.0 7.0 246 13659
- 60.32 6 7 poisson 500 ------- 0 6.0 7.0 100 13513
r 60.322 6 7 poisson 500 ------- 0 6.0 7.0 92 13505
- 60.324 6 7 poisson 500 ------- 0 6.0 7.0 103 13516
+ 60.32496 6 7 poisson 500 ------- 0 6.0 7.0 247 13660
r 60.326 6 7 poisson 500 ------- 0 6.0 7.0 95 13508
- 60.328 6 7 poisson 500 ------- 0 6.0 7.0 105 13518
+ 60.328091 6 7 poisson 500 ------- 0 6.0 7.0 248 13661
+ 60.329715 6 7 poisson 500 ------- 0 6.0 7.0 249 13662
+ 60.329813 6 7 poisson 500 ------- 0 6.0 7.0 250 13663
d 60.329813 6 7 poisson 500 ------- 0 6.0 7.0 250 13663
r 60.33 6 7 poisson 500 ------- 0 6.0 7.0 98 13511
+ 60.331323 6 7 poisson 500 ------- 0 6.0 7.0 251 13664
d 60.331323 6 7 poisson 500 ------- 0 6.0 7.0 251 13664
+ 60.331434 6 7 poisson 500 ------- 0 6.0 7.0 252 13665
d 60.331434 6 7 poisson 500 ------- 0 6.0 7.0 252 13665
- 60.332 6 7 poisson 500 ------- 0 6.0 7.0 106 13519
r 60.334 6 7 poisson 500 ------- 0 6.0 7.0 100 13513
- 60.336 6 7 poisson 500 ------- 0 6.0 7.0 108 13521
+ 60.33672 6 7 poisson 500 ------- 0 6.0 7.0 253 13666
+ 60.337074 6 7 poisson 500 ------- 0 6.0 7.0 254 13667
r 60.338 6 7 poisson 500 ------- 0 6.0 7.0 103 13516
+ 60.339071 6 7 poisson 500 ------- 0 6.0 7.0 255 13668
d 60.339071 6 7 poisson 500 ------- 0 6.0 7.0 255 13668
- 60.34 6 7 poisson 500 ------- 0 6.0 7.0 114 13527
+ 60.340317 6 7 poisson 500 ------- 0 6.0 7.0 256 13669
+ 60.341035 6 7 poisson 500 ------- 0 6.0 7.0 257 13670
d 60.341035 6 7 poisson 500 ------- 0 6.0 7.0 257 13670
r 60.342 6 7 poisson 500 ------- 0 6.0 7.0 105 13518
+ 60.342284 6 7 poisson 500 ------- 0 6.0 7.0 258 13671