+ 30 3 7 poisson 500 ------- 0 3.0 7.0 0 2094
- 30 3 7 poisson 500 ------- 0 3.0 7.0 0 2094
+ 30.007819 3 7 poisson 500 ------- 0 3.0 7.0 1 2095
- 30.007819 3 7 poisson 500 ------- 0 3.0 7.0 1 2095
+ 30.009972 3 7 poisson 500 ------- 0 3.0 7.0 2 2096
+ 30.010476 3 7 poisson 500 ------- 0 3.0 7.0 3 2097
+ 30.010692 3 7 poisson 500 ------- 0 3.0 7.0 4 2098
- 30.011819 3 7 poisson 500 ------- 0 3.0 7.0 2 2096
r 30.014 3 7 poisson 500 ------- 0 3.0 7.0 0 2094
- 30.015819 3 7 poisson 500 ------- 0 3.0 7.0 3 2097
+ 30.018299 3 7 poisson 500 ------- 0 3.0 7.0 5 2099
- 30.019819 3 7 poisson 500 ------- 0 3.0 7.0 4 2098
r 30.021819 3 7 poisson 500 ------- 0 3.0 7.0 1 2095
- 30.023819 3 7 poisson 500 ------- 0 3.0 7.0 5 2099
r 30.025819 3 7 poisson 500 ------- 0 3.0 7.0 2 2096
+ 30.027981 3 7 poisson 500 ------- 0 3.0 7.0 6 2100
- 30.027981 3 7 poisson 500 ------- 0 3.0 7.0 6 2100
r 30.029819 3 7 poisson 500 ------- 0 3.0 7.0 3 2097
+ 30.029971 3 7 poisson 500 ------- 0 3.0 7.0 7 2101
+ 30.030198 3 7 poisson 500 ------- 0 3.0 7.0 8 2102
- 30.031981 3 7 poisson 500 ------- 0 3.0 7.0 7 2101
r 30.033819 3 7 poisson 500 ------- 0 3.0 7.0 4 2098
- 30.035981 3 7 poisson 500 ------- 0 3.0 7.0 8 2102
+ 30.037534 3 7 poisson 500 ------- 0 3.0 7.0 9 2103
r 30.037819 3 7 poisson 500 ------- 0 3.0 7.0 5 2099
+ 30.03912 3 7 poisson 500 ------- 0 3.0 7.0 10 2104
- 30.039981 3 7 poisson 500 ------- 0 3.0 7.0 9 2103
+ 30.040951 3 7 poisson 500 ------- 0 3.0 7.0 11 2105
r 30.041981 3 7 poisson 500 ------- 0 3.0 7.0 6 2100
- 30.043981 3 7 poisson 500 ------- 0 3.0 7.0 10 2104
+ 30.04572 3 7 poisson 500 ------- 0 3.0 7.0 12 2106
r 30.045981 3 7 poisson 500 ------- 0 3.0 7.0 7 2101
- 30.047981 3 7 poisson 500 ------- 0 3.0 7.0 11 2105
r 30.049981 3 7 poisson 500 ------- 0 3.0 7.0 8 2102
- 30.051981 3 7 poisson 500 ------- 0 3.0 7.0 12 2106
r 30.053981 3 7 poisson 500 ------- 0 3.0 7.0 9 2103
r 30.057981 3 7 poisson 500 ------- 0 3.0 7.0 10 2104
+ 30.06054 3 7 poisson 500 ------- 0 3.0 7.0 13 2107
- 30.06054 3 7 poisson 500 ------- 0 3.0 7.0 13 2107
r 30.061981 3 7 poisson 500 ------- 0 3.0 7.0 11 2105
+ 30.06243 3 7 poisson 500 ------- 0 3.0 7.0 14 2108
- 30.06454 3 7 poisson 500 ------- 0 3.0 7.0 14 2108
+ 30.065043 3 7 poisson 500 ------- 0 3.0 7.0 15 2109
r 30.065981 3 7 poisson 500 ------- 0 3.0 7.0 12 2106
+ 30.068218 3 7 poisson 500 ------- 0 3.0 7.0 16 2110
- 30.06854 3 7 poisson 500 ------- 0 3.0 7.0 15 2109
+ 30.069018 3 7 poisson 500 ------- 0 3.0 7.0 17 2111
- 30.07254 3 7 poisson 500 ------- 0 3.0 7.0 16 2110
r 30.07454 3 7 poisson 500 ------- 0 3.0 7.0 13 2107
- 30.07654 3 7 poisson 500 ------- 0 3.0 7.0 17 2111
+ 30.076573 3 7 poisson 500 ------- 0 3.0 7.0 18 2112
r 30.07854 3 7 poisson 500 ------- 0 3.0 7.0 14 2108
- 30.08054 3 7 poisson 500 ------- 0 3.0 7.0 18 2112
r 30.08254 3 7 poisson 500 ------- 0 3.0 7.0 15 2109
+ 30.083852 3 7 poisson 500 ------- 0 3.0 7.0 19 2113
+ 30.084002 3 7 poisson 500 ------- 0 3.0 7.0 20 2114
- 30.08454 3 7 poisson 500 ------- 0 3.0 7.0 19 2113
+ 30.085302 3 7 poisson 500 ------- 0 3.0 7.0 21 2115
r 30.08654 3 7 poisson 500 ------- 0 3.0 7.0 16 2110
+ 30.08678 3 7 poisson 500 ------- 0 3.0 7.0 22 2116
- 30.08854 3 7 poisson 500 ------- 0 3.0 7.0 20 2114
+ 30.089107 3 7 poisson 500 ------- 0 3.0 7.0 23 2117
+ 30.089206 3 7 poisson 500 ------- 0 3.0 7.0 24 2118
r 30.09054 3 7 poisson 500 ------- 0 3.0 7.0 17 2111
+ 30.092057 3 7 poisson 500 ------- 0 3.0 7.0 25 2119
- 30.09254 3 7 poisson 500 ------- 0 3.0 7.0 21 2115
+ 30.094183 3 7 poisson 500 ------- 0 3.0 7.0 26 2120
r 30.09454 3 7 poisson 500 ------- 0 3.0 7.0 18 2112
- 30.09654 3 7 poisson 500 ------- 0 3.0 7.0 22 2116
+ 30.098532 3 7 poisson 500 ------- 0 3.0 7.0 27 2121
r 30.09854 3 7 poisson 500 ------- 0 3.0 7.0 19 2113
- 30.10054 3 7 poisson 500 ------- 0 3.0 7.0 23 2117
+ 30.102224 3 7 poisson 500 ------- 0 3.0 7.0 28 2122
r 30.10254 3 7 poisson 500 ------- 0 3.0 7.0 20 2114
+ 30.10381 3 7 poisson 500 ------- 0 3.0 7.0 29 2123
- 30.10454 3 7 poisson 500 ------- 0 3.0 7.0 24 2118
r 30.10654 3 7 poisson 500 ------- 0 3.0 7.0 21 2115
- 30.10854 3 7 poisson 500 ------- 0 3.0 7.0 25 2119
+ 30.109514 3 7 poisson 500 ------- 0 3.0 7.0 30 2124
r 30.11054 3 7 poisson 500 ------- 0 3.0 7.0 22 2116
- 30.11254 3 7 poisson 500 ------- 0 3.0 7.0 26 2120
r 30.11454 3 7 poisson 500 ------- 0 3.0 7.0 23 2117
+ 30.115491 3 7 poisson 500 ------- 0 3.0 7.0 31 2125
- 30.11654 3 7 poisson 500 ------- 0 3.0 7.0 27 2121
+ 30.117115 3 7 poisson 500 ------- 0 3.0 7.0 32 2126
r 30.11854 3 7 poisson 500 ------- 0 3.0 7.0 24 2118
- 30.12054 3 7 poisson 500 ------- 0 3.0 7.0 28 2122
r 30.12254 3 7 poisson 500 ------- 0 3.0 7.0 25 2119
+ 30.123948 3 7 poisson 500 ------- 0 3.0 7.0 33 2127
- 30.12454 3 7 poisson 500 ------- 0 3.0 7.0 29 2123
r 30.12654 3 7 poisson 500 ------- 0 3.0 7.0 26 2120
- 30.12854 3 7 poisson 500 ------- 0 3.0 7.0 30 2124
r 30.13054 3 7 poisson 500 ------- 0 3.0 7.0 27 2121
+ 30.13092 3 7 poisson 500 ------- 0 3.0 7.0 34 2128
- 30.13254 3 7 poisson 500 ------- 0 3.0 7.0 31 2125
r 30.13454 3 7 poisson 500 ------- 0 3.0 7.0 28 2122
- 30.13654 3 7 poisson 500 ------- 0 3.0 7.0 32 2126
r 30.13854 3 7 poisson 500 ------- 0 3.0 7.0 29 2123
- 30.14054 3 7 poisson 500 ------- 0 3.0 7.0 33 2127
r 30.14254 3 7 poisson 500 ------- 0 3.0 7.0 30 2124
- 30.14454 3 7 poisson 500 ------- 0 3.0 7.0 34 2128
r 30.14654 3 7 poisson 500 ------- 0 3.0 7.0 31 2125
+ 30.147024 3 7 poisson 500 ------- 0 3.0 7.0 35 2129
+ 30.147393 3 7 poisson 500 ------- 0 3.0 7.0 36 2130
- 30.14854 3 7 poisson 500 ------- 0 3.0 7.0 35 2129
r 30.15054 3 7 poisson 500 ------- 0 3.0 7.0 32 2126
- 30.15254 3 7 poisson 500 ------- 0 3.0 7.0 36 2130
r 30.15454 3 7 poisson 500 ------- 0 3.0 7.0 33 2127
r 30.15854 3 7 poisson 500 ------- 0 3.0 7.0 34 2128
+ 30.162455 3 7 poisson 500 ------- 0 3.0 7.0 37 2131
- 30.162455 3 7 poisson 500 ------- 0 3.0 7.0 37 2131
r 30.16254 3 7 poisson 500 ------- 0 3.0 7.0 35 2129
r 30.16654 3 7 poisson 500 ------- 0 3.0 7.0 36 2130
r 30.176455 3 7 poisson 500 ------- 0 3.0 7.0 37 2131
+ 30.178727 3 7 poisson 500 ------- 0 3.0 7.0 38 2132
- 30.178727 3 7 poisson 500 ------- 0 3.0 7.0 38 2132
r 30.192727 3 7 poisson 500 ------- 0 3.0 7.0 38 2132
+ 30.19657 3 7 poisson 500 ------- 0 3.0 7.0 39 2133
- 30.19657 3 7 poisson 500 ------- 0 3.0 7.0 39 2133
+ 30.1998 3 7 poisson 500 ------- 0 3.0 7.0 40 2134
- 30.20057 3 7 poisson 500 ------- 0 3.0 7.0 40 2134
+ 30.207493 3 7 poisson 500 ------- 0 3.0 7.0 41 2135
- 30.207493 3 7 poisson 500 ------- 0 3.0 7.0 41 2135
r 30.21057 3 7 poisson 500 ------- 0 3.0 7.0 39 2133
+ 30.210719 3 7 poisson 500 ------- 0 3.0 7.0 42 2136
- 30.211493 3 7 poisson 500 ------- 0 3.0 7.0 42 2136
r 30.21457 3 7 poisson 500 ------- 0 3.0 7.0 40 2134
+ 30.216838 3 7 poisson 500 ------- 0 3.0 7.0 43 2137
- 30.216838 3 7 poisson 500 ------- 0 3.0 7.0 43 2137
r 30.221493 3 7 poisson 500 ------- 0 3.0 7.0 41 2135
+ 30.222385 3 7 poisson 500 ------- 0 3.0 7.0 44 2138
- 30.222385 3 7 poisson 500 ------- 0 3.0 7.0 44 2138
r 30.225493 3 7 poisson 500 ------- 0 3.0 7.0 42 2136
+ 30.229785 3 7 poisson 500 ------- 0 3.0 7.0 45 2139
- 30.229785 3 7 poisson 500 ------- 0 3.0 7.0 45 2139
r 30.230838 3 7 poisson 500 ------- 0 3.0 7.0 43 2137
r 30.236385 3 7 poisson 500 ------- 0 3.0 7.0 44 2138
+ 30.237184 3 7 poisson 500 ------- 0 3.0 7.0 46 2140
- 30.237184 3 7 poisson 500 ------- 0 3.0 7.0 46 2140
+ 30.23745 3 7 poisson 500 ------- 0 3.0 7.0 47 2141
+ 30.239097 3 7 poisson 500 ------- 0 3.0 7.0 48 2142
- 30.241184 3 7 poisson 500 ------- 0 3.0 7.0 47 2141
+ 30.241717 3 7 poisson 500 ------- 0 3.0 7.0 49 2143
r 30.243785 3 7 poisson 500 ------- 0 3.0 7.0 45 2139
- 30.245184 3 7 poisson 500 ------- 0 3.0 7.0 48 2142
+ 30.245718 3 7 poisson 500 ------- 0 3.0 7.0 50 2144
- 30.249184 3 7 poisson 500 ------- 0 3.0 7.0 49 2143
+ 30.25029 3 7 poisson 500 ------- 0 3.0 7.0 51 2145
r 30.251184 3 7 poisson 500 ------- 0 3.0 7.0 46 2140
+ 30.253136 3 7 poisson 500 ------- 0 3.0 7.0 52 2146
- 30.253184 3 7 poisson 500 ------- 0 3.0 7.0 50 2144
r 30.255184 3 7 poisson 500 ------- 0 3.0 7.0 47 2141
- 30.257184 3 7 poisson 500 ------- 0 3.0 7.0 51 2145
r 30.259184 3 7 poisson 500 ------- 0 3.0 7.0 48 2142
- 30.261184 3 7 poisson 500 ------- 0 3.0 7.0 52 2146
r 30.263184 3 7 poisson 500 ------- 0 3.0 7.0 49 2143
+ 30.264038 3 7 poisson 500 ------- 0 3.0 7.0 53 2147
+ 30.264949 3 7 poisson 500 ------- 0 3.0 7.0 54 2148
+ 30.264952 3 7 poisson 500 ------- 0 3.0 7.0 55 2149
- 30.265184 3 7 poisson 500 ------- 0 3.0 7.0 53 2147
+ 30.265446 3 7 poisson 500 ------- 0 3.0 7.0 56 2150
r 30.267184 3 7 poisson 500 ------- 0 3.0 7.0 50 2144
- 30.269184 3 7 poisson 500 ------- 0 3.0 7.0 54 2148
+ 30.270647 3 7 poisson 500 ------- 0 3.0 7.0 57 2151
r 30.271184 3 7 poisson 500 ------- 0 3.0 7.0 51 2145
- 30.273184 3 7 poisson 500 ------- 0 3.0 7.0 55 2149
r 30.275184 3 7 poisson 500 ------- 0 3.0 7.0 52 2146
- 30.277184 3 7 poisson 500 ------- 0 3.0 7.0 56 2150
+ 30.277643 3 7 poisson 500 ------- 0 3.0 7.0 58 2152
+ 30.277948 3 7 poisson 500 ------- 0 3.0 7.0 59 2153
r 30.279184 3 7 poisson 500 ------- 0 3.0 7.0 53 2147
+ 30.280005 3 7 poisson 500 ------- 0 3.0 7.0 60 2154
- 30.281184 3 7 poisson 500 ------- 0 3.0 7.0 57 2151
+ 30.28195 3 7 poisson 500 ------- 0 3.0 7.0 61 2155
r 30.283184 3 7 poisson 500 ------- 0 3.0 7.0 54 2148
- 30.285184 3 7 poisson 500 ------- 0 3.0 7.0 58 2152
+ 30.285908 3 7 poisson 500 ------- 0 3.0 7.0 62 2156
r 30.287184 3 7 poisson 500 ------- 0 3.0 7.0 55 2149
+ 30.287804 3 7 poisson 500 ------- 0 3.0 7.0 63 2157
- 30.289184 3 7 poisson 500 ------- 0 3.0 7.0 59 2153
+ 30.289475 3 7 poisson 500 ------- 0 3.0 7.0 64 2158
+ 30.289699 3 7 poisson 500 ------- 0 3.0 7.0 65 2159
r 30.291184 3 7 poisson 500 ------- 0 3.0 7.0 56 2150
- 30.293184 3 7 poisson 500 ------- 0 3.0 7.0 60 2154
r 30.295184 3 7 poisson 500 ------- 0 3.0 7.0 57 2151
+ 30.295379 3 7 poisson 500 ------- 0 3.0 7.0 66 2160
- 30.297184 3 7 poisson 500 ------- 0 3.0 7.0 61 2155
+ 30.297449 3 7 poisson 500 ------- 0 3.0 7.0 67 2161
r 30.299184 3 7 poisson 500 ------- 0 3.0 7.0 58 2152
- 30.301184 3 7 poisson 500 ------- 0 3.0 7.0 62 2156
r 30.303184 3 7 poisson 500 ------- 0 3.0 7.0 59 2153
- 30.305184 3 7 poisson 500 ------- 0 3.0 7.0 63 2157
r 30.307184 3 7 poisson 500 ------- 0 3.0 7.0 60 2154
- 30.309184 3 7 poisson 500 ------- 0 3.0 7.0 64 2158
r 30.311184 3 7 poisson 500 ------- 0 3.0 7.0 61 2155
- 30.313184 3 7 poisson 500 ------- 0 3.0 7.0 65 2159
+ 30.314121 3 7 poisson 500 ------- 0 3.0 7.0 68 2162
r 30.315184 3 7 poisson 500 ------- 0 3.0 7.0 62 2156
- 30.317184 3 7 poisson 500 ------- 0 3.0 7.0 66 2160
+ 30.31724 3 7 poisson 500 ------- 0 3.0 7.0 69 2163
r 30.319184 3 7 poisson 500 ------- 0 3.0 7.0 63 2157
+ 30.319521 3 7 poisson 500 ------- 0 3.0 7.0 70 2164
+ 30.320067 3 7 poisson 500 ------- 0 3.0 7.0 71 2165
- 30.321184 3 7 poisson 500 ------- 0 3.0 7.0 67 2161
r 30.323184 3 7 poisson 500 ------- 0 3.0 7.0 64 2158
+ 30.32498 3 7 poisson 500 ------- 0 3.0 7.0 72 2166
- 30.325184 3 7 poisson 500 ------- 0 3.0 7.0 68 2162
+ 30.326204 3 7 poisson 500 ------- 0 3.0 7.0 73 2167
r 30.327184 3 7 poisson 500 ------- 0 3.0 7.0 65 2159
+ 30.327657 3 7 poisson 500 ------- 0 3.0 7.0 74 2168
- 30.329184 3 7 poisson 500 ------- 0 3.0 7.0 69 2163
+ 30.330663 3 7 poisson 500 ------- 0 3.0 7.0 75 2169
r 30.331184 3 7 poisson 500 ------- 0 3.0 7.0 66 2160
- 30.333184 3 7 poisson 500 ------- 0 3.0 7.0 70 2164
r 30.335184 3 7 poisson 500 ------- 0 3.0 7.0 67 2161
+ 30.336858 3 7 poisson 500 ------- 0 3.0 7.0 76 2170
- 30.337184 3 7 poisson 500 ------- 0 3.0 7.0 71 2165
r 30.339184 3 7 poisson 500 ------- 0 3.0 7.0 68 2162
+ 30.339865 3 7 poisson 500 ------- 0 3.0 7.0 77 2171
- 30.341184 3 7 poisson 500 ------- 0 3.0 7.0 72 2166
r 30.343184 3 7 poisson 500 ------- 0 3.0 7.0 69 2163
- 30.345184 3 7 poisson 500 ------- 0 3.0 7.0 73 2167
r 30.347184 3 7 poisson 500 ------- 0 3.0 7.0 70 2164
- 30.349184 3 7 poisson 500 ------- 0 3.0 7.0 74 2168
r 30.351184 3 7 poisson 500 ------- 0 3.0 7.0 71 2165
- 30.353184 3 7 poisson 500 ------- 0 3.0 7.0 75 2169
r 30.355184 3 7 poisson 500 ------- 0 3.0 7.0 72 2166
+ 30.355929 3 7 poisson 500 ------- 0 3.0 7.0 78 2172
- 30.357184 3 7 poisson 500 ------- 0 3.0 7.0 76 2170
r 30.359184 3 7 poisson 500 ------- 0 3.0 7.0 73 2167
- 30.361184 3 7 poisson 500 ------- 0 3.0 7.0 77 2171
r 30.363184 3 7 poisson 500 ------- 0 3.0 7.0 74 2168
- 30.365184 3 7 poisson 500 ------- 0 3.0 7.0 78 2172
r 30.367184 3 7 poisson 500 ------- 0 3.0 7.0 75 2169
+ 30.367589 3 7 poisson 500 ------- 0 3.0 7.0 79 2173
- 30.369184 3 7 poisson 500 ------- 0 3.0 7.0 79 2173
+ 30.370405 3 7 poisson 500 ------- 0 3.0 7.0 80 2174
r 30.371184 3 7 poisson 500 ------- 0 3.0 7.0 76 2170
- 30.373184 3 7 poisson 500 ------- 0 3.0 7.0 80 2174
r 30.375184 3 7 poisson 500 ------- 0 3.0 7.0 77 2171
+ 30.379056 3 7 poisson 500 ------- 0 3.0 7.0 81 2175
- 30.379056 3 7 poisson 500 ------- 0 3.0 7.0 81 2175
r 30.379184 3 7 poisson 500 ------- 0 3.0 7.0 78 2172
+ 30.380061 3 7 poisson 500 ------- 0 3.0 7.0 82 2176
+ 30.38179 3 7 poisson 500 ------- 0 3.0 7.0 83 2177
+ 30.382967 3 7 poisson 500 ------- 0 3.0 7.0 84 2178
- 30.383056 3 7 poisson 500 ------- 0 3.0 7.0 82 2176
r 30.383184 3 7 poisson 500 ------- 0 3.0 7.0 79 2173
+ 30.383467 3 7 poisson 500 ------- 0 3.0 7.0 85 2179
+ 30.385748 3 7 poisson 500 ------- 0 3.0 7.0 86 2180
- 30.387056 3 7 poisson 500 ------- 0 3.0 7.0 83 2177
r 30.387184 3 7 poisson 500 ------- 0 3.0 7.0 80 2174
+ 30.389745 3 7 poisson 500 ------- 0 3.0 7.0 87 2181
- 30.391056 3 7 poisson 500 ------- 0 3.0 7.0 84 2178
r 30.393056 3 7 poisson 500 ------- 0 3.0 7.0 81 2175
- 30.395056 3 7 poisson 500 ------- 0 3.0 7.0 85 2179
r 30.397056 3 7 poisson 500 ------- 0 3.0 7.0 82 2176
+ 30.397089 3 7 poisson 500 ------- 0 3.0 7.0 88 2182
- 30.399056 3 7 poisson 500 ------- 0 3.0 7.0 86 2180
+ 30.399664 3 7 poisson 500 ------- 0 3.0 7.0 89 2183
r 30.401056 3 7 poisson 500 ------- 0 3.0 7.0 83 2177
- 30.403056 3 7 poisson 500 ------- 0 3.0 7.0 87 2181
+ 30.403384 3 7 poisson 500 ------- 0 3.0 7.0 90 2184
r 30.405056 3 7 poisson 500 ------- 0 3.0 7.0 84 2178
+ 30.405732 3 7 poisson 500 ------- 0 3.0 7.0 91 2185
- 30.407056 3 7 poisson 500 ------- 0 3.0 7.0 88 2182
r 30.409056 3 7 poisson 500 ------- 0 3.0 7.0 85 2179
- 30.411056 3 7 poisson 500 ------- 0 3.0 7.0 89 2183
r 30.413056 3 7 poisson 500 ------- 0 3.0 7.0 86 2180
- 30.415056 3 7 poisson 500 ------- 0 3.0 7.0 90 2184
+ 30.415096 3 7 poisson 500 ------- 0 3.0 7.0 92 2186
+ 30.416532 3 7 poisson 500 ------- 0 3.0 7.0 93 2187
r 30.417056 3 7 poisson 500 ------- 0 3.0 7.0 87 2181
+ 30.418034 3 7 poisson 500 ------- 0 3.0 7.0 94 2188
- 30.419056 3 7 poisson 500 ------- 0 3.0 7.0 91 2185
r 30.421056 3 7 poisson 500 ------- 0 3.0 7.0 88 2182
- 30.423056 3 7 poisson 500 ------- 0 3.0 7.0 92 2186
r 30.425056 3 7 poisson 500 ------- 0 3.0 7.0 89 2183
- 30.427056 3 7 poisson 500 ------- 0 3.0 7.0 93 2187
r 30.429056 3 7 poisson 500 ------- 0 3.0 7.0 90 2184
- 30.431056 3 7 poisson 500 ------- 0 3.0 7.0 94 2188
r 30.433056 3 7 poisson 500 ------- 0 3.0 7.0 91 2185
r 30.437056 3 7 poisson 500 ------- 0 3.0 7.0 92 2186
r 30.441056 3 7 poisson 500 ------- 0 3.0 7.0 93 2187
r 30.445056 3 7 poisson 500 ------- 0 3.0 7.0 94 2188
+ 30.452609 3 7 poisson 500 ------- 0 3.0 7.0 95 2189
- 30.452609 3 7 poisson 500 ------- 0 3.0 7.0 95 2189
+ 30.455809 3 7 poisson 500 ------- 0 3.0 7.0 96 2190
- 30.456609 3 7 poisson 500 ------- 0 3.0 7.0 96 2190
+ 30.45754 3 7 poisson 500 ------- 0 3.0 7.0 97 2191
- 30.460609 3 7 poisson 500 ------- 0 3.0 7.0 97 2191
+ 30.462667 3 7 poisson 500 ------- 0 3.0 7.0 98 2192
+ 30.463906 3 7 poisson 500 ------- 0 3.0 7.0 99 2193
- 30.464609 3 7 poisson 500 ------- 0 3.0 7.0 98 2192
r 30.466609 3 7 poisson 500 ------- 0 3.0 7.0 95 2189
- 30.468609 3 7 poisson 500 ------- 0 3.0 7.0 99 2193
r 30.470609 3 7 poisson 500 ------- 0 3.0 7.0 96 2190
+ 30.472245 3 7 poisson 500 ------- 0 3.0 7.0 100 2194
- 30.472609 3 7 poisson 500 ------- 0 3.0 7.0 100 2194
r 30.474609 3 7 poisson 500 ------- 0 3.0 7.0 97 2191
+ 30.477967 3 7 poisson 500 ------- 0 3.0 7.0 101 2195
- 30.477967 3 7 poisson 500 ------- 0 3.0 7.0 101 2195
r 30.478609 3 7 poisson 500 ------- 0 3.0 7.0 98 2192
+ 30.47881 3 7 poisson 500 ------- 0 3.0 7.0 102 2196
+ 30.48051 3 7 poisson 500 ------- 0 3.0 7.0 103 2197
- 30.481967 3 7 poisson 500 ------- 0 3.0 7.0 102 2196
r 30.482609 3 7 poisson 500 ------- 0 3.0 7.0 99 2193
+ 30.483665 3 7 poisson 500 ------- 0 3.0 7.0 104 2198
- 30.485967 3 7 poisson 500 ------- 0 3.0 7.0 103 2197
r 30.486609 3 7 poisson 500 ------- 0 3.0 7.0 100 2194
+ 30.487656 3 7 poisson 500 ------- 0 3.0 7.0 105 2199
- 30.489967 3 7 poisson 500 ------- 0 3.0 7.0 104 2198
r 30.491967 3 7 poisson 500 ------- 0 3.0 7.0 101 2195
+ 30.492279 3 7 poisson 500 ------- 0 3.0 7.0 106 2200
- 30.493967 3 7 poisson 500 ------- 0 3.0 7.0 105 2199
+ 30.494375 3 7 poisson 500 ------- 0 3.0 7.0 107 2201
+ 30.495506 3 7 poisson 500 ------- 0 3.0 7.0 108 2202
r 30.495967 3 7 poisson 500 ------- 0 3.0 7.0 102 2196
+ 30.496599 3 7 poisson 500 ------- 0 3.0 7.0 109 2203
- 30.497967 3 7 poisson 500 ------- 0 3.0 7.0 106 2200
+ 30.498028 3 7 poisson 500 ------- 0 3.0 7.0 110 2204
+ 30.499387 3 7 poisson 500 ------- 0 3.0 7.0 111 2205
r 30.499967 3 7 poisson 500 ------- 0 3.0 7.0 103 2197
- 30.501967 3 7 poisson 500 ------- 0 3.0 7.0 107 2201
r 30.503967 3 7 poisson 500 ------- 0 3.0 7.0 104 2198
- 30.505967 3 7 poisson 500 ------- 0 3.0 7.0 108 2202
r 30.507967 3 7 poisson 500 ------- 0 3.0 7.0 105 2199
- 30.509967 3 7 poisson 500 ------- 0 3.0 7.0 109 2203
r 30.511967 3 7 poisson 500 ------- 0 3.0 7.0 106 2200
+ 30.512052 3 7 poisson 500 ------- 0 3.0 7.0 112 2206
- 30.513967 3 7 poisson 500 ------- 0 3.0 7.0 110 2204
r 30.515967 3 7 poisson 500 ------- 0 3.0 7.0 107 2201
- 30.517967 3 7 poisson 500 ------- 0 3.0 7.0 111 2205
r 30.519967 3 7 poisson 500 ------- 0 3.0 7.0 108 2202
- 30.521967 3 7 poisson 500 ------- 0 3.0 7.0 112 2206
+ 30.52289 3 7 poisson 500 ------- 0 3.0 7.0 113 2207
r 30.523967 3 7 poisson 500 ------- 0 3.0 7.0 109 2203
+ 30.523972 3 7 poisson 500 ------- 0 3.0 7.0 114 2208
+ 30.525207 3 7 poisson 500 ------- 0 3.0 7.0 115 2209
- 30.525967 3 7 poisson 500 ------- 0 3.0 7.0 113 2207
+ 30.526046 3 7 poisson 500 ------- 0 3.0 7.0 116 2210
r 30.527967 3 7 poisson 500 ------- 0 3.0 7.0 110 2204
+ 30.528429 3 7 poisson 500 ------- 0 3.0 7.0 117 2211
- 30.529967 3 7 poisson 500 ------- 0 3.0 7.0 114 2208
+ 30.530706 3 7 poisson 500 ------- 0 3.0 7.0 118 2212
+ 30.530851 3 7 poisson 500 ------- 0 3.0 7.0 119 2213
r 30.531967 3 7 poisson 500 ------- 0 3.0 7.0 111 2205
- 30.533967 3 7 poisson 500 ------- 0 3.0 7.0 115 2209
r 30.535967 3 7 poisson 500 ------- 0 3.0 7.0 112 2206
+ 30.537484 3 7 poisson 500 ------- 0 3.0 7.0 120 2214
- 30.537967 3 7 poisson 500 ------- 0 3.0 7.0 116 2210
r 30.539967 3 7 poisson 500 ------- 0 3.0 7.0 113 2207
+ 30.541026 3 7 poisson 500 ------- 0 3.0 7.0 121 2215
- 30.541967 3 7 poisson 500 ------- 0 3.0 7.0 117 2211
r 30.543967 3 7 poisson 500 ------- 0 3.0 7.0 114 2208
- 30.545967 3 7 poisson 500 ------- 0 3.0 7.0 118 2212
+ 30.546503 3 7 poisson 500 ------- 0 3.0 7.0 122 2216
r 30.547967 3 7 poisson 500 ------- 0 3.0 7.0 115 2209
- 30.549967 3 7 poisson 500 ------- 0 3.0 7.0 119 2213
+ 30.550815 3 7 poisson 500 ------- 0 3.0 7.0 123 2217
r 30.551967 3 7 poisson 500 ------- 0 3.0 7.0 116 2210
- 30.553967 3 7 poisson 500 ------- 0 3.0 7.0 120 2214
r 30.555967 3 7 poisson 500 ------- 0 3.0 7.0 117 2211
+ 30.556051 3 7 poisson 500 ------- 0 3.0 7.0 124 2218
- 30.557967 3 7 poisson 500 ------- 0 3.0 7.0 121 2215
r 30.559967 3 7 poisson 500 ------- 0 3.0 7.0 118 2212
- 30.561967 3 7 poisson 500 ------- 0 3.0 7.0 122 2216
+ 30.563325 3 7 poisson 500 ------- 0 3.0 7.0 125 2219
r 30.563967 3 7 poisson 500 ------- 0 3.0 7.0 119 2213
+ 30.56483 3 7 poisson 500 ------- 0 3.0 7.0 126 2220
+ 30.56579 3 7 poisson 500 ------- 0 3.0 7.0 127 2221
- 30.565967 3 7 poisson 500 ------- 0 3.0 7.0 123 2217
r 30.567967 3 7 poisson 500 ------- 0 3.0 7.0 120 2214
- 30.569967 3 7 poisson 500 ------- 0 3.0 7.0 124 2218
r 30.571967 3 7 poisson 500 ------- 0 3.0 7.0 121 2215
+ 30.573815 3 7 poisson 500 ------- 0 3.0 7.0 128 2222
- 30.573967 3 7 poisson 500 ------- 0 3.0 7.0 125 2219
+ 30.574066 3 7 poisson 500 ------- 0 3.0 7.0 129 2223
r 30.575967 3 7 poisson 500 ------- 0 3.0 7.0 122 2216
- 30.577967 3 7 poisson 500 ------- 0 3.0 7.0 126 2220
+ 30.57934 3 7 poisson 500 ------- 0 3.0 7.0 130 2224
r 30.579967 3 7 poisson 500 ------- 0 3.0 7.0 123 2217
+ 30.580819 3 7 poisson 500 ------- 0 3.0 7.0 131 2225
- 30.581967 3 7 poisson 500 ------- 0 3.0 7.0 127 2221
r 30.583967 3 7 poisson 500 ------- 0 3.0 7.0 124 2218
+ 30.584646 3 7 poisson 500 ------- 0 3.0 7.0 132 2226
+ 30.584819 3 7 poisson 500 ------- 0 3.0 7.0 133 2227
- 30.585967 3 7 poisson 500 ------- 0 3.0 7.0 128 2222
r 30.587967 3 7 poisson 500 ------- 0 3.0 7.0 125 2219
+ 30.588184 3 7 poisson 500 ------- 0 3.0 7.0 134 2228
- 30.589967 3 7 poisson 500 ------- 0 3.0 7.0 129 2223
+ 30.590222 3 7 poisson 500 ------- 0 3.0 7.0 135 2229
+ 30.5914 3 7 poisson 500 ------- 0 3.0 7.0 136 2230
r 30.591967 3 7 poisson 500 ------- 0 3.0 7.0 126 2220
+ 30.592104 3 7 poisson 500 ------- 0 3.0 7.0 137 2231
- 30.593967 3 7 poisson 500 ------- 0 3.0 7.0 130 2224
+ 30.594085 3 7 poisson 500 ------- 0 3.0 7.0 138 2232
r 30.595967 3 7 poisson 500 ------- 0 3.0 7.0 127 2221
- 30.597967 3 7 poisson 500 ------- 0 3.0 7.0 131 2225
+ 30.599341 3 7 poisson 500 ------- 0 3.0 7.0 139 2233
r 30.599967 3 7 poisson 500 ------- 0 3.0 7.0 128 2222
- 30.601967 3 7 poisson 500 ------- 0 3.0 7.0 132 2226
r 30.603967 3 7 poisson 500 ------- 0 3.0 7.0 129 2223
- 30.605967 3 7 poisson 500 ------- 0 3.0 7.0 133 2227
r 30.607967 3 7 poisson 500 ------- 0 3.0 7.0 130 2224
+ 30.608167 3 7 poisson 500 ------- 0 3.0 7.0 140 2234
- 30.609967 3 7 poisson 500 ------- 0 3.0 7.0 134 2228
+ 30.611386 3 7 poisson 500 ------- 0 3.0 7.0 141 2235
r 30.611967 3 7 poisson 500 ------- 0 3.0 7.0 131 2225
+ 30.612562 3 7 poisson 500 ------- 0 3.0 7.0 142 2236
- 30.613967 3 7 poisson 500 ------- 0 3.0 7.0 135 2229
r 30.615967 3 7 poisson 500 ------- 0 3.0 7.0 132 2226
- 30.617967 3 7 poisson 500 ------- 0 3.0 7.0 136 2230
r 30.619967 3 7 poisson 500 ------- 0 3.0 7.0 133 2227
- 30.621967 3 7 poisson 500 ------- 0 3.0 7.0 137 2231
+ 30.623876 3 7 poisson 500 ------- 0 3.0 7.0 143 2237
r 30.623967 3 7 poisson 500 ------- 0 3.0 7.0 134 2228
+ 30.623992 3 7 poisson 500 ------- 0 3.0 7.0 144 2238
+ 30.624807 3 7 poisson 500 ------- 0 3.0 7.0 145 2239
- 30.625967 3 7 poisson 500 ------- 0 3.0 7.0 138 2232
r 30.627967 3 7 poisson 500 ------- 0 3.0 7.0 135 2229
+ 30.627979 3 7 poisson 500 ------- 0 3.0 7.0 146 2240
- 30.629967 3 7 poisson 500 ------- 0 3.0 7.0 139 2233
+ 30.631938 3 7 poisson 500 ------- 0 3.0 7.0 147 2241
r 30.631967 3 7 poisson 500 ------- 0 3.0 7.0 136 2230
- 30.633967 3 7 poisson 500 ------- 0 3.0 7.0 140 2234
r 30.635967 3 7 poisson 500 ------- 0 3.0 7.0 137 2231
- 30.637967 3 7 poisson 500 ------- 0 3.0 7.0 141 2235
r 30.639967 3 7 poisson 500 ------- 0 3.0 7.0 138 2232
- 30.641967 3 7 poisson 500 ------- 0 3.0 7.0 142 2236
r 30.643967 3 7 poisson 500 ------- 0 3.0 7.0 139 2233
+ 30.645459 3 7 poisson 500 ------- 0 3.0 7.0 148 2242
+ 30.645709 3 7 poisson 500 ------- 0 3.0 7.0 149 2243
- 30.645967 3 7 poisson 500 ------- 0 3.0 7.0 143 2237
r 30.647967 3 7 poisson 500 ------- 0 3.0 7.0 140 2234
+ 30.649407 3 7 poisson 500 ------- 0 3.0 7.0 150 2244
- 30.649967 3 7 poisson 500 ------- 0 3.0 7.0 144 2238
+ 30.65095 3 7 poisson 500 ------- 0 3.0 7.0 151 2245
r 30.651967 3 7 poisson 500 ------- 0 3.0 7.0 141 2235
+ 30.653282 3 7 poisson 500 ------- 0 3.0 7.0 152 2246
- 30.653967 3 7 poisson 500 ------- 0 3.0 7.0 145 2239
+ 30.655813 3 7 poisson 500 ------- 0 3.0 7.0 153 2247
r 30.655967 3 7 poisson 500 ------- 0 3.0 7.0 142 2236
- 30.657967 3 7 poisson 500 ------- 0 3.0 7.0 146 2240
r 30.659967 3 7 poisson 500 ------- 0 3.0 7.0 143 2237
+ 30.661045 3 7 poisson 500 ------- 0 3.0 7.0 154 2248
- 30.661967 3 7 poisson 500 ------- 0 3.0 7.0 147 2241
r 30.663967 3 7 poisson 500 ------- 0 3.0 7.0 144 2238
- 30.665967 3 7 poisson 500 ------- 0 3.0 7.0 148 2242
+ 30.66691 3 7 poisson 500 ------- 0 3.0 7.0 155 2249
r 30.667967 3 7 poisson 500 ------- 0 3.0 7.0 145 2239
- 30.669967 3 7 poisson 500 ------- 0 3.0 7.0 149 2243
r 30.671967 3 7 poisson 500 ------- 0 3.0 7.0 146 2240
- 30.673967 3 7 poisson 500 ------- 0 3.0 7.0 150 2244
r 30.675967 3 7 poisson 500 ------- 0 3.0 7.0 147 2241
- 30.677967 3 7 poisson 500 ------- 0 3.0 7.0 151 2245
+ 30.679349 3 7 poisson 500 ------- 0 3.0 7.0 156 2250
r 30.679967 3 7 poisson 500 ------- 0 3.0 7.0 148 2242
+ 30.680053 3 7 poisson 500 ------- 0 3.0 7.0 157 2251
+ 30.6816 3 7 poisson 500 ------- 0 3.0 7.0 158 2252
- 30.681967 3 7 poisson 500 ------- 0 3.0 7.0 152 2246
+ 30.683577 3 7 poisson 500 ------- 0 3.0 7.0 159 2253
r 30.683967 3 7 poisson 500 ------- 0 3.0 7.0 149 2243
+ 30.684739 3 7 poisson 500 ------- 0 3.0 7.0 160 2254
- 30.685967 3 7 poisson 500 ------- 0 3.0 7.0 153 2247
+ 30.68597 3 7 poisson 500 ------- 0 3.0 7.0 161 2255
r 30.687967 3 7 poisson 500 ------- 0 3.0 7.0 150 2244
+ 30.689338 3 7 poisson 500 ------- 0 3.0 7.0 162 2256
- 30.689967 3 7 poisson 500 ------- 0 3.0 7.0 154 2248
r 30.691967 3 7 poisson 500 ------- 0 3.0 7.0 151 2245
+ 30.693481 3 7 poisson 500 ------- 0 3.0 7.0 163 2257
- 30.693967 3 7 poisson 500 ------- 0 3.0 7.0 155 2249
r 30.695967 3 7 poisson 500 ------- 0 3.0 7.0 152 2246
+ 30.696858 3 7 poisson 500 ------- 0 3.0 7.0 164 2258
+ 30.697929 3 7 poisson 500 ------- 0 3.0 7.0 165 2259
- 30.697967 3 7 poisson 500 ------- 0 3.0 7.0 156 2250
+ 30.698505 3 7 poisson 500 ------- 0 3.0 7.0 166 2260
r 30.699967 3 7 poisson 500 ------- 0 3.0 7.0 153 2247
+ 30.701581 3 7 poisson 500 ------- 0 3.0 7.0 167 2261
- 30.701967 3 7 poisson 500 ------- 0 3.0 7.0 157 2251
+ 30.7032 3 7 poisson 500 ------- 0 3.0 7.0 168 2262
r 30.703967 3 7 poisson 500 ------- 0 3.0 7.0 154 2248
+ 30.705752 3 7 poisson 500 ------- 0 3.0 7.0 169 2263
+ 30.70586 3 7 poisson 500 ------- 0 3.0 7.0 170 2264
- 30.705967 3 7 poisson 500 ------- 0 3.0 7.0 158 2252
r 30.707967 3 7 poisson 500 ------- 0 3.0 7.0 155 2249
- 30.709967 3 7 poisson 500 ------- 0 3.0 7.0 159 2253
+ 30.710936 3 7 poisson 500 ------- 0 3.0 7.0 171 2265
r 30.711967 3 7 poisson 500 ------- 0 3.0 7.0 156 2250
- 30.713967 3 7 poisson 500 ------- 0 3.0 7.0 160 2254
r 30.715967 3 7 poisson 500 ------- 0 3.0 7.0 157 2251
- 30.717967 3 7 poisson 500 ------- 0 3.0 7.0 161 2255
r 30.719967 3 7 poisson 500 ------- 0 3.0 7.0 158 2252
- 30.721967 3 7 poisson 500 ------- 0 3.0 7.0 162 2256
+ 30.723499 3 7 poisson 500 ------- 0 3.0 7.0 172 2266
r 30.723967 3 7 poisson 500 ------- 0 3.0 7.0 159 2253
- 30.725967 3 7 poisson 500 ------- 0 3.0 7.0 163 2257
r 30.727967 3 7 poisson 500 ------- 0 3.0 7.0 160 2254
- 30.729967 3 7 poisson 500 ------- 0 3.0 7.0 164 2258
+ 30.731403 3 7 poisson 500 ------- 0 3.0 7.0 173 2267
r 30.731967 3 7 poisson 500 ------- 0 3.0 7.0 161 2255
- 30.733967 3 7 poisson 500 ------- 0 3.0 7.0 165 2259
r 30.735967 3 7 poisson 500 ------- 0 3.0 7.0 162 2256
+ 30.737387 3 7 poisson 500 ------- 0 3.0 7.0 174 2268
- 30.737967 3 7 poisson 500 ------- 0 3.0 7.0 166 2260
r 30.739967 3 7 poisson 500 ------- 0 3.0 7.0 163 2257
- 30.741967 3 7 poisson 500 ------- 0 3.0 7.0 167 2261
+ 30.743299 3 7 poisson 500 ------- 0 3.0 7.0 175 2269
r 30.743967 3 7 poisson 500 ------- 0 3.0 7.0 164 2258
- 30.745967 3 7 poisson 500 ------- 0 3.0 7.0 168 2262
r 30.747967 3 7 poisson 500 ------- 0 3.0 7.0 165 2259
- 30.749967 3 7 poisson 500 ------- 0 3.0 7.0 169 2263
r 30.751967 3 7 poisson 500 ------- 0 3.0 7.0 166 2260
- 30.753967 3 7 poisson 500 ------- 0 3.0 7.0 170 2264
r 30.755967 3 7 poisson 500 ------- 0 3.0 7.0 167 2261
+ 30.757676 3 7 poisson 500 ------- 0 3.0 7.0 176 2270
- 30.757967 3 7 poisson 500 ------- 0 3.0 7.0 171 2265
+ 30.759347 3 7 poisson 500 ------- 0 3.0 7.0 177 2271
+ 30.759892 3 7 poisson 500 ------- 0 3.0 7.0 178 2272
r 30.759967 3 7 poisson 500 ------- 0 3.0 7.0 168 2262
+ 30.76057 3 7 poisson 500 ------- 0 3.0 7.0 179 2273
- 30.761967 3 7 poisson 500 ------- 0 3.0 7.0 172 2266
r 30.763967 3 7 poisson 500 ------- 0 3.0 7.0 169 2263
- 30.765967 3 7 poisson 500 ------- 0 3.0 7.0 173 2267
r 30.767967 3 7 poisson 500 ------- 0 3.0 7.0 170 2264
- 30.769967 3 7 poisson 500 ------- 0 3.0 7.0 174 2268
r 30.771967 3 7 poisson 500 ------- 0 3.0 7.0 171 2265
+ 30.772072 3 7 poisson 500 ------- 0 3.0 7.0 180 2274
+ 30.772758 3 7 poisson 500 ------- 0 3.0 7.0 181 2275
- 30.773967 3 7 poisson 500 ------- 0 3.0 7.0 175 2269
r 30.775967 3 7 poisson 500 ------- 0 3.0 7.0 172 2266
- 30.777967 3 7 poisson 500 ------- 0 3.0 7.0 176 2270
r 30.779967 3 7 poisson 500 ------- 0 3.0 7.0 173 2267
- 30.781967 3 7 poisson 500 ------- 0 3.0 7.0 177 2271
r 30.783967 3 7 poisson 500 ------- 0 3.0 7.0 174 2268
- 30.785967 3 7 poisson 500 ------- 0 3.0 7.0 178 2272
+ 30.786903 3 7 poisson 500 ------- 0 3.0 7.0 182 2276
r 30.787967 3 7 poisson 500 ------- 0 3.0 7.0 175 2269
- 30.789967 3 7 poisson 500 ------- 0 3.0 7.0 179 2273
r 30.791967 3 7 poisson 500 ------- 0 3.0 7.0 176 2270
- 30.793967 3 7 poisson 500 ------- 0 3.0 7.0 180 2274
r 30.795967 3 7 poisson 500 ------- 0 3.0 7.0 177 2271
+ 30.796787 3 7 poisson 500 ------- 0 3.0 7.0 183 2277
- 30.797967 3 7 poisson 500 ------- 0 3.0 7.0 181 2275
+ 30.799465 3 7 poisson 500 ------- 0 3.0 7.0 184 2278
r 30.799967 3 7 poisson 500 ------- 0 3.0 7.0 178 2272
+ 30.800482 3 7 poisson 500 ------- 0 3.0 7.0 185 2279
- 30.801967 3 7 poisson 500 ------- 0 3.0 7.0 182 2276
r 30.803967 3 7 poisson 500 ------- 0 3.0 7.0 179 2273
+ 30.804367 3 7 poisson 500 ------- 0 3.0 7.0 186 2280
- 30.805967 3 7 poisson 500 ------- 0 3.0 7.0 183 2277
r 30.807967 3 7 poisson 500 ------- 0 3.0 7.0 180 2274
- 30.809967 3 7 poisson 500 ------- 0 3.0 7.0 184 2278