+ 50 5 7 poisson 500 ------- 0 5.0 7.0 0 8350
- 50 5 7 poisson 500 ------- 0 5.0 7.0 0 8350
+ 50.002061 5 7 poisson 500 ------- 0 5.0 7.0 1 8351
- 50.004 5 7 poisson 500 ------- 0 5.0 7.0 1 8351
+ 50.004353 5 7 poisson 500 ------- 0 5.0 7.0 2 8352
- 50.008 5 7 poisson 500 ------- 0 5.0 7.0 2 8352
+ 50.009738 5 7 poisson 500 ------- 0 5.0 7.0 3 8353
+ 50.011056 5 7 poisson 500 ------- 0 5.0 7.0 4 8354
+ 50.01167 5 7 poisson 500 ------- 0 5.0 7.0 5 8355
- 50.012 5 7 poisson 500 ------- 0 5.0 7.0 3 8353
r 50.014 5 7 poisson 500 ------- 0 5.0 7.0 0 8350
- 50.016 5 7 poisson 500 ------- 0 5.0 7.0 4 8354
+ 50.017415 5 7 poisson 500 ------- 0 5.0 7.0 6 8356
r 50.018 5 7 poisson 500 ------- 0 5.0 7.0 1 8351
+ 50.018405 5 7 poisson 500 ------- 0 5.0 7.0 7 8357
+ 50.019813 5 7 poisson 500 ------- 0 5.0 7.0 8 8358
- 50.02 5 7 poisson 500 ------- 0 5.0 7.0 5 8355
+ 50.020911 5 7 poisson 500 ------- 0 5.0 7.0 9 8359
r 50.022 5 7 poisson 500 ------- 0 5.0 7.0 2 8352
+ 50.023048 5 7 poisson 500 ------- 0 5.0 7.0 10 8360
- 50.024 5 7 poisson 500 ------- 0 5.0 7.0 6 8356
+ 50.025797 5 7 poisson 500 ------- 0 5.0 7.0 11 8361
r 50.026 5 7 poisson 500 ------- 0 5.0 7.0 3 8353
+ 50.026673 5 7 poisson 500 ------- 0 5.0 7.0 12 8362
+ 50.027543 5 7 poisson 500 ------- 0 5.0 7.0 13 8363
+ 50.027726 5 7 poisson 500 ------- 0 5.0 7.0 14 8364
- 50.028 5 7 poisson 500 ------- 0 5.0 7.0 7 8357
+ 50.029908 5 7 poisson 500 ------- 0 5.0 7.0 15 8365
r 50.03 5 7 poisson 500 ------- 0 5.0 7.0 4 8354
+ 50.031227 5 7 poisson 500 ------- 0 5.0 7.0 16 8366
- 50.032 5 7 poisson 500 ------- 0 5.0 7.0 8 8358
+ 50.032613 5 7 poisson 500 ------- 0 5.0 7.0 17 8367
r 50.034 5 7 poisson 500 ------- 0 5.0 7.0 5 8355
+ 50.034251 5 7 poisson 500 ------- 0 5.0 7.0 18 8368
+ 50.034657 5 7 poisson 500 ------- 0 5.0 7.0 19 8369
- 50.036 5 7 poisson 500 ------- 0 5.0 7.0 9 8359
+ 50.037425 5 7 poisson 500 ------- 0 5.0 7.0 20 8370
r 50.038 5 7 poisson 500 ------- 0 5.0 7.0 6 8356
- 50.04 5 7 poisson 500 ------- 0 5.0 7.0 10 8360
r 50.042 5 7 poisson 500 ------- 0 5.0 7.0 7 8357
+ 50.043423 5 7 poisson 500 ------- 0 5.0 7.0 21 8371
- 50.044 5 7 poisson 500 ------- 0 5.0 7.0 11 8361
+ 50.045359 5 7 poisson 500 ------- 0 5.0 7.0 22 8372
r 50.046 5 7 poisson 500 ------- 0 5.0 7.0 8 8358
- 50.048 5 7 poisson 500 ------- 0 5.0 7.0 12 8362
+ 50.049034 5 7 poisson 500 ------- 0 5.0 7.0 23 8373
+ 50.049055 5 7 poisson 500 ------- 0 5.0 7.0 24 8374
r 50.05 5 7 poisson 500 ------- 0 5.0 7.0 9 8359
+ 50.051504 5 7 poisson 500 ------- 0 5.0 7.0 25 8375
- 50.052 5 7 poisson 500 ------- 0 5.0 7.0 13 8363
+ 50.052998 5 7 poisson 500 ------- 0 5.0 7.0 26 8376
r 50.054 5 7 poisson 500 ------- 0 5.0 7.0 10 8360
+ 50.054675 5 7 poisson 500 ------- 0 5.0 7.0 27 8377
- 50.056 5 7 poisson 500 ------- 0 5.0 7.0 14 8364
+ 50.056465 5 7 poisson 500 ------- 0 5.0 7.0 28 8378
+ 50.056654 5 7 poisson 500 ------- 0 5.0 7.0 29 8379
r 50.058 5 7 poisson 500 ------- 0 5.0 7.0 11 8361
+ 50.058505 5 7 poisson 500 ------- 0 5.0 7.0 30 8380
- 50.06 5 7 poisson 500 ------- 0 5.0 7.0 15 8365
+ 50.061379 5 7 poisson 500 ------- 0 5.0 7.0 31 8381
r 50.062 5 7 poisson 500 ------- 0 5.0 7.0 12 8362
+ 50.063399 5 7 poisson 500 ------- 0 5.0 7.0 32 8382
- 50.064 5 7 poisson 500 ------- 0 5.0 7.0 16 8366
+ 50.064182 5 7 poisson 500 ------- 0 5.0 7.0 33 8383
+ 50.064692 5 7 poisson 500 ------- 0 5.0 7.0 34 8384
+ 50.06575 5 7 poisson 500 ------- 0 5.0 7.0 35 8385
+ 50.065857 5 7 poisson 500 ------- 0 5.0 7.0 36 8386
r 50.066 5 7 poisson 500 ------- 0 5.0 7.0 13 8363
- 50.068 5 7 poisson 500 ------- 0 5.0 7.0 17 8367
+ 50.068044 5 7 poisson 500 ------- 0 5.0 7.0 37 8387
+ 50.06877 5 7 poisson 500 ------- 0 5.0 7.0 38 8388
r 50.07 5 7 poisson 500 ------- 0 5.0 7.0 14 8364
+ 50.07161 5 7 poisson 500 ------- 0 5.0 7.0 39 8389
+ 50.071871 5 7 poisson 500 ------- 0 5.0 7.0 40 8390
- 50.072 5 7 poisson 500 ------- 0 5.0 7.0 18 8368
+ 50.072629 5 7 poisson 500 ------- 0 5.0 7.0 41 8391
+ 50.073579 5 7 poisson 500 ------- 0 5.0 7.0 42 8392
r 50.074 5 7 poisson 500 ------- 0 5.0 7.0 15 8365
- 50.076 5 7 poisson 500 ------- 0 5.0 7.0 19 8369
+ 50.076959 5 7 poisson 500 ------- 0 5.0 7.0 43 8393
+ 50.077579 5 7 poisson 500 ------- 0 5.0 7.0 44 8394
+ 50.07776 5 7 poisson 500 ------- 0 5.0 7.0 45 8395
r 50.078 5 7 poisson 500 ------- 0 5.0 7.0 16 8366
- 50.08 5 7 poisson 500 ------- 0 5.0 7.0 20 8370
+ 50.080721 5 7 poisson 500 ------- 0 5.0 7.0 46 8396
+ 50.08076 5 7 poisson 500 ------- 0 5.0 7.0 47 8397
r 50.082 5 7 poisson 500 ------- 0 5.0 7.0 17 8367
+ 50.083324 5 7 poisson 500 ------- 0 5.0 7.0 48 8398
- 50.084 5 7 poisson 500 ------- 0 5.0 7.0 21 8371
+ 50.084994 5 7 poisson 500 ------- 0 5.0 7.0 49 8399
r 50.086 5 7 poisson 500 ------- 0 5.0 7.0 18 8368
+ 50.087992 5 7 poisson 500 ------- 0 5.0 7.0 50 8400
- 50.088 5 7 poisson 500 ------- 0 5.0 7.0 22 8372
+ 50.088036 5 7 poisson 500 ------- 0 5.0 7.0 51 8401
r 50.09 5 7 poisson 500 ------- 0 5.0 7.0 19 8369
- 50.092 5 7 poisson 500 ------- 0 5.0 7.0 23 8373
+ 50.093861 5 7 poisson 500 ------- 0 5.0 7.0 52 8402
r 50.094 5 7 poisson 500 ------- 0 5.0 7.0 20 8370
- 50.096 5 7 poisson 500 ------- 0 5.0 7.0 24 8374
+ 50.097826 5 7 poisson 500 ------- 0 5.0 7.0 53 8403
r 50.098 5 7 poisson 500 ------- 0 5.0 7.0 21 8371
+ 50.099694 5 7 poisson 500 ------- 0 5.0 7.0 54 8404
+ 50.099743 5 7 poisson 500 ------- 0 5.0 7.0 55 8405
- 50.1 5 7 poisson 500 ------- 0 5.0 7.0 25 8375
+ 50.100677 5 7 poisson 500 ------- 0 5.0 7.0 56 8406
r 50.102 5 7 poisson 500 ------- 0 5.0 7.0 22 8372
+ 50.102556 5 7 poisson 500 ------- 0 5.0 7.0 57 8407
+ 50.103863 5 7 poisson 500 ------- 0 5.0 7.0 58 8408
- 50.104 5 7 poisson 500 ------- 0 5.0 7.0 26 8376
+ 50.104359 5 7 poisson 500 ------- 0 5.0 7.0 59 8409
r 50.106 5 7 poisson 500 ------- 0 5.0 7.0 23 8373
- 50.108 5 7 poisson 500 ------- 0 5.0 7.0 27 8377
+ 50.109866 5 7 poisson 500 ------- 0 5.0 7.0 60 8410
r 50.11 5 7 poisson 500 ------- 0 5.0 7.0 24 8374
- 50.112 5 7 poisson 500 ------- 0 5.0 7.0 28 8378
+ 50.112031 5 7 poisson 500 ------- 0 5.0 7.0 61 8411
r 50.114 5 7 poisson 500 ------- 0 5.0 7.0 25 8375
+ 50.115148 5 7 poisson 500 ------- 0 5.0 7.0 62 8412
- 50.116 5 7 poisson 500 ------- 0 5.0 7.0 29 8379
+ 50.11641 5 7 poisson 500 ------- 0 5.0 7.0 63 8413
+ 50.117106 5 7 poisson 500 ------- 0 5.0 7.0 64 8414
r 50.118 5 7 poisson 500 ------- 0 5.0 7.0 26 8376
+ 50.119428 5 7 poisson 500 ------- 0 5.0 7.0 65 8415
- 50.12 5 7 poisson 500 ------- 0 5.0 7.0 30 8380
r 50.122 5 7 poisson 500 ------- 0 5.0 7.0 27 8377
+ 50.123377 5 7 poisson 500 ------- 0 5.0 7.0 66 8416
+ 50.123547 5 7 poisson 500 ------- 0 5.0 7.0 67 8417
- 50.124 5 7 poisson 500 ------- 0 5.0 7.0 31 8381
+ 50.124731 5 7 poisson 500 ------- 0 5.0 7.0 68 8418
+ 50.125024 5 7 poisson 500 ------- 0 5.0 7.0 69 8419
r 50.126 5 7 poisson 500 ------- 0 5.0 7.0 28 8378
+ 50.126601 5 7 poisson 500 ------- 0 5.0 7.0 70 8420
- 50.128 5 7 poisson 500 ------- 0 5.0 7.0 32 8382
+ 50.12846 5 7 poisson 500 ------- 0 5.0 7.0 71 8421
+ 50.128628 5 7 poisson 500 ------- 0 5.0 7.0 72 8422
r 50.13 5 7 poisson 500 ------- 0 5.0 7.0 29 8379
+ 50.131412 5 7 poisson 500 ------- 0 5.0 7.0 73 8423
- 50.132 5 7 poisson 500 ------- 0 5.0 7.0 33 8383
r 50.134 5 7 poisson 500 ------- 0 5.0 7.0 30 8380
- 50.136 5 7 poisson 500 ------- 0 5.0 7.0 34 8384
+ 50.137611 5 7 poisson 500 ------- 0 5.0 7.0 74 8424
r 50.138 5 7 poisson 500 ------- 0 5.0 7.0 31 8381
+ 50.138404 5 7 poisson 500 ------- 0 5.0 7.0 75 8425
- 50.14 5 7 poisson 500 ------- 0 5.0 7.0 35 8385
+ 50.141763 5 7 poisson 500 ------- 0 5.0 7.0 76 8426
r 50.142 5 7 poisson 500 ------- 0 5.0 7.0 32 8382
+ 50.143694 5 7 poisson 500 ------- 0 5.0 7.0 77 8427
- 50.144 5 7 poisson 500 ------- 0 5.0 7.0 36 8386
+ 50.145818 5 7 poisson 500 ------- 0 5.0 7.0 78 8428
r 50.146 5 7 poisson 500 ------- 0 5.0 7.0 33 8383
+ 50.147 5 7 poisson 500 ------- 0 5.0 7.0 79 8429
- 50.148 5 7 poisson 500 ------- 0 5.0 7.0 37 8387
+ 50.148135 5 7 poisson 500 ------- 0 5.0 7.0 80 8430
r 50.15 5 7 poisson 500 ------- 0 5.0 7.0 34 8384
- 50.152 5 7 poisson 500 ------- 0 5.0 7.0 38 8388
+ 50.152497 5 7 poisson 500 ------- 0 5.0 7.0 81 8431
+ 50.153729 5 7 poisson 500 ------- 0 5.0 7.0 82 8432
+ 50.153853 5 7 poisson 500 ------- 0 5.0 7.0 83 8433
r 50.154 5 7 poisson 500 ------- 0 5.0 7.0 35 8385
+ 50.154301 5 7 poisson 500 ------- 0 5.0 7.0 84 8434
+ 50.155455 5 7 poisson 500 ------- 0 5.0 7.0 85 8435
- 50.156 5 7 poisson 500 ------- 0 5.0 7.0 39 8389
r 50.158 5 7 poisson 500 ------- 0 5.0 7.0 36 8386
- 50.16 5 7 poisson 500 ------- 0 5.0 7.0 40 8390
r 50.162 5 7 poisson 500 ------- 0 5.0 7.0 37 8387
- 50.164 5 7 poisson 500 ------- 0 5.0 7.0 41 8391
r 50.166 5 7 poisson 500 ------- 0 5.0 7.0 38 8388
+ 50.166312 5 7 poisson 500 ------- 0 5.0 7.0 86 8436
- 50.168 5 7 poisson 500 ------- 0 5.0 7.0 42 8392
+ 50.169001 5 7 poisson 500 ------- 0 5.0 7.0 87 8437
r 50.17 5 7 poisson 500 ------- 0 5.0 7.0 39 8389
- 50.172 5 7 poisson 500 ------- 0 5.0 7.0 43 8393
+ 50.173294 5 7 poisson 500 ------- 0 5.0 7.0 88 8438
r 50.174 5 7 poisson 500 ------- 0 5.0 7.0 40 8390
+ 50.174363 5 7 poisson 500 ------- 0 5.0 7.0 89 8439
+ 50.175052 5 7 poisson 500 ------- 0 5.0 7.0 90 8440
- 50.176 5 7 poisson 500 ------- 0 5.0 7.0 44 8394
+ 50.177978 5 7 poisson 500 ------- 0 5.0 7.0 91 8441
r 50.178 5 7 poisson 500 ------- 0 5.0 7.0 41 8391
+ 50.178231 5 7 poisson 500 ------- 0 5.0 7.0 92 8442
+ 50.178688 5 7 poisson 500 ------- 0 5.0 7.0 93 8443
- 50.18 5 7 poisson 500 ------- 0 5.0 7.0 45 8395
r 50.182 5 7 poisson 500 ------- 0 5.0 7.0 42 8392
+ 50.182085 5 7 poisson 500 ------- 0 5.0 7.0 94 8444
+ 50.182803 5 7 poisson 500 ------- 0 5.0 7.0 95 8445
d 50.182803 5 7 poisson 500 ------- 0 5.0 7.0 95 8445
- 50.184 5 7 poisson 500 ------- 0 5.0 7.0 46 8396
+ 50.185588 5 7 poisson 500 ------- 0 5.0 7.0 96 8446
r 50.186 5 7 poisson 500 ------- 0 5.0 7.0 43 8393
+ 50.187873 5 7 poisson 500 ------- 0 5.0 7.0 97 8447
d 50.187873 5 7 poisson 500 ------- 0 5.0 7.0 97 8447
- 50.188 5 7 poisson 500 ------- 0 5.0 7.0 47 8397
+ 50.189156 5 7 poisson 500 ------- 0 5.0 7.0 98 8448
+ 50.189804 5 7 poisson 500 ------- 0 5.0 7.0 99 8449
d 50.189804 5 7 poisson 500 ------- 0 5.0 7.0 99 8449
r 50.19 5 7 poisson 500 ------- 0 5.0 7.0 44 8394
+ 50.190093 5 7 poisson 500 ------- 0 5.0 7.0 100 8450
d 50.190093 5 7 poisson 500 ------- 0 5.0 7.0 100 8450
- 50.192 5 7 poisson 500 ------- 0 5.0 7.0 48 8398
+ 50.193924 5 7 poisson 500 ------- 0 5.0 7.0 101 8451
r 50.194 5 7 poisson 500 ------- 0 5.0 7.0 45 8395
- 50.196 5 7 poisson 500 ------- 0 5.0 7.0 49 8399
r 50.198 5 7 poisson 500 ------- 0 5.0 7.0 46 8396
+ 50.199505 5 7 poisson 500 ------- 0 5.0 7.0 102 8452
- 50.2 5 7 poisson 500 ------- 0 5.0 7.0 50 8400
+ 50.200895 5 7 poisson 500 ------- 0 5.0 7.0 103 8453
r 50.202 5 7 poisson 500 ------- 0 5.0 7.0 47 8397
- 50.204 5 7 poisson 500 ------- 0 5.0 7.0 51 8401
+ 50.20421 5 7 poisson 500 ------- 0 5.0 7.0 104 8454
r 50.206 5 7 poisson 500 ------- 0 5.0 7.0 48 8398
+ 50.20644 5 7 poisson 500 ------- 0 5.0 7.0 105 8455
d 50.20644 5 7 poisson 500 ------- 0 5.0 7.0 105 8455
- 50.208 5 7 poisson 500 ------- 0 5.0 7.0 52 8402
+ 50.209242 5 7 poisson 500 ------- 0 5.0 7.0 106 8456
+ 50.209321 5 7 poisson 500 ------- 0 5.0 7.0 107 8457
d 50.209321 5 7 poisson 500 ------- 0 5.0 7.0 107 8457
r 50.21 5 7 poisson 500 ------- 0 5.0 7.0 49 8399
+ 50.210755 5 7 poisson 500 ------- 0 5.0 7.0 108 8458
d 50.210755 5 7 poisson 500 ------- 0 5.0 7.0 108 8458
- 50.212 5 7 poisson 500 ------- 0 5.0 7.0 53 8403
+ 50.21247 5 7 poisson 500 ------- 0 5.0 7.0 109 8459
r 50.214 5 7 poisson 500 ------- 0 5.0 7.0 50 8400
- 50.216 5 7 poisson 500 ------- 0 5.0 7.0 54 8404
+ 50.217161 5 7 poisson 500 ------- 0 5.0 7.0 110 8460
r 50.218 5 7 poisson 500 ------- 0 5.0 7.0 51 8401
- 50.22 5 7 poisson 500 ------- 0 5.0 7.0 55 8405
r 50.222 5 7 poisson 500 ------- 0 5.0 7.0 52 8402
+ 50.223951 5 7 poisson 500 ------- 0 5.0 7.0 111 8461
- 50.224 5 7 poisson 500 ------- 0 5.0 7.0 56 8406
+ 50.224183 5 7 poisson 500 ------- 0 5.0 7.0 112 8462
r 50.226 5 7 poisson 500 ------- 0 5.0 7.0 53 8403
+ 50.226227 5 7 poisson 500 ------- 0 5.0 7.0 113 8463
d 50.226227 5 7 poisson 500 ------- 0 5.0 7.0 113 8463
- 50.228 5 7 poisson 500 ------- 0 5.0 7.0 57 8407
+ 50.229646 5 7 poisson 500 ------- 0 5.0 7.0 114 8464
+ 50.229938 5 7 poisson 500 ------- 0 5.0 7.0 115 8465
d 50.229938 5 7 poisson 500 ------- 0 5.0 7.0 115 8465
r 50.23 5 7 poisson 500 ------- 0 5.0 7.0 54 8404
+ 50.231178 5 7 poisson 500 ------- 0 5.0 7.0 116 8466
d 50.231178 5 7 poisson 500 ------- 0 5.0 7.0 116 8466
+ 50.23151 5 7 poisson 500 ------- 0 5.0 7.0 117 8467
d 50.23151 5 7 poisson 500 ------- 0 5.0 7.0 117 8467
- 50.232 5 7 poisson 500 ------- 0 5.0 7.0 58 8408
+ 50.23379 5 7 poisson 500 ------- 0 5.0 7.0 118 8468
r 50.234 5 7 poisson 500 ------- 0 5.0 7.0 55 8405
+ 50.234154 5 7 poisson 500 ------- 0 5.0 7.0 119 8469
d 50.234154 5 7 poisson 500 ------- 0 5.0 7.0 119 8469
+ 50.23503 5 7 poisson 500 ------- 0 5.0 7.0 120 8470
d 50.23503 5 7 poisson 500 ------- 0 5.0 7.0 120 8470
- 50.236 5 7 poisson 500 ------- 0 5.0 7.0 59 8409
r 50.238 5 7 poisson 500 ------- 0 5.0 7.0 56 8406
+ 50.238866 5 7 poisson 500 ------- 0 5.0 7.0 121 8471
+ 50.239248 5 7 poisson 500 ------- 0 5.0 7.0 122 8472
d 50.239248 5 7 poisson 500 ------- 0 5.0 7.0 122 8472
+ 50.239907 5 7 poisson 500 ------- 0 5.0 7.0 123 8473
d 50.239907 5 7 poisson 500 ------- 0 5.0 7.0 123 8473
- 50.24 5 7 poisson 500 ------- 0 5.0 7.0 60 8410
r 50.242 5 7 poisson 500 ------- 0 5.0 7.0 57 8407
+ 50.243352 5 7 poisson 500 ------- 0 5.0 7.0 124 8474
- 50.244 5 7 poisson 500 ------- 0 5.0 7.0 61 8411
+ 50.244189 5 7 poisson 500 ------- 0 5.0 7.0 125 8475
+ 50.245403 5 7 poisson 500 ------- 0 5.0 7.0 126 8476
d 50.245403 5 7 poisson 500 ------- 0 5.0 7.0 126 8476
+ 50.245898 5 7 poisson 500 ------- 0 5.0 7.0 127 8477
d 50.245898 5 7 poisson 500 ------- 0 5.0 7.0 127 8477
r 50.246 5 7 poisson 500 ------- 0 5.0 7.0 58 8408
+ 50.247785 5 7 poisson 500 ------- 0 5.0 7.0 128 8478
d 50.247785 5 7 poisson 500 ------- 0 5.0 7.0 128 8478
- 50.248 5 7 poisson 500 ------- 0 5.0 7.0 62 8412
r 50.25 5 7 poisson 500 ------- 0 5.0 7.0 59 8409
+ 50.250932 5 7 poisson 500 ------- 0 5.0 7.0 129 8479
+ 50.250968 5 7 poisson 500 ------- 0 5.0 7.0 130 8480
d 50.250968 5 7 poisson 500 ------- 0 5.0 7.0 130 8480
+ 50.251401 5 7 poisson 500 ------- 0 5.0 7.0 131 8481
d 50.251401 5 7 poisson 500 ------- 0 5.0 7.0 131 8481
+ 50.251699 5 7 poisson 500 ------- 0 5.0 7.0 132 8482
d 50.251699 5 7 poisson 500 ------- 0 5.0 7.0 132 8482
- 50.252 5 7 poisson 500 ------- 0 5.0 7.0 63 8413
r 50.254 5 7 poisson 500 ------- 0 5.0 7.0 60 8410
- 50.256 5 7 poisson 500 ------- 0 5.0 7.0 64 8414
+ 50.257654 5 7 poisson 500 ------- 0 5.0 7.0 133 8483
r 50.258 5 7 poisson 500 ------- 0 5.0 7.0 61 8411
- 50.26 5 7 poisson 500 ------- 0 5.0 7.0 65 8415
+ 50.260076 5 7 poisson 500 ------- 0 5.0 7.0 134 8484
r 50.262 5 7 poisson 500 ------- 0 5.0 7.0 62 8412
+ 50.262899 5 7 poisson 500 ------- 0 5.0 7.0 135 8485
+ 50.263317 5 7 poisson 500 ------- 0 5.0 7.0 136 8486
d 50.263317 5 7 poisson 500 ------- 0 5.0 7.0 136 8486
+ 50.263527 5 7 poisson 500 ------- 0 5.0 7.0 137 8487
d 50.263527 5 7 poisson 500 ------- 0 5.0 7.0 137 8487
- 50.264 5 7 poisson 500 ------- 0 5.0 7.0 66 8416
r 50.266 5 7 poisson 500 ------- 0 5.0 7.0 63 8413
+ 50.266011 5 7 poisson 500 ------- 0 5.0 7.0 138 8488
- 50.268 5 7 poisson 500 ------- 0 5.0 7.0 67 8417
r 50.27 5 7 poisson 500 ------- 0 5.0 7.0 64 8414
- 50.272 5 7 poisson 500 ------- 0 5.0 7.0 68 8418
r 50.274 5 7 poisson 500 ------- 0 5.0 7.0 65 8415
+ 50.274511 5 7 poisson 500 ------- 0 5.0 7.0 139 8489
- 50.276 5 7 poisson 500 ------- 0 5.0 7.0 69 8419
r 50.278 5 7 poisson 500 ------- 0 5.0 7.0 66 8416
+ 50.279291 5 7 poisson 500 ------- 0 5.0 7.0 140 8490
- 50.28 5 7 poisson 500 ------- 0 5.0 7.0 70 8420
r 50.282 5 7 poisson 500 ------- 0 5.0 7.0 67 8417
- 50.284 5 7 poisson 500 ------- 0 5.0 7.0 71 8421
+ 50.284117 5 7 poisson 500 ------- 0 5.0 7.0 141 8491
r 50.286 5 7 poisson 500 ------- 0 5.0 7.0 68 8418
+ 50.286258 5 7 poisson 500 ------- 0 5.0 7.0 142 8492
- 50.288 5 7 poisson 500 ------- 0 5.0 7.0 72 8422
+ 50.289303 5 7 poisson 500 ------- 0 5.0 7.0 143 8493
r 50.29 5 7 poisson 500 ------- 0 5.0 7.0 69 8419
+ 50.29054 5 7 poisson 500 ------- 0 5.0 7.0 144 8494
+ 50.291685 5 7 poisson 500 ------- 0 5.0 7.0 145 8495
d 50.291685 5 7 poisson 500 ------- 0 5.0 7.0 145 8495
+ 50.291765 5 7 poisson 500 ------- 0 5.0 7.0 146 8496
d 50.291765 5 7 poisson 500 ------- 0 5.0 7.0 146 8496
+ 50.291972 5 7 poisson 500 ------- 0 5.0 7.0 147 8497
d 50.291972 5 7 poisson 500 ------- 0 5.0 7.0 147 8497
- 50.292 5 7 poisson 500 ------- 0 5.0 7.0 73 8423
r 50.294 5 7 poisson 500 ------- 0 5.0 7.0 70 8420
- 50.296 5 7 poisson 500 ------- 0 5.0 7.0 74 8424
+ 50.296717 5 7 poisson 500 ------- 0 5.0 7.0 148 8498
+ 50.297464 5 7 poisson 500 ------- 0 5.0 7.0 149 8499
+ 50.297908 5 7 poisson 500 ------- 0 5.0 7.0 150 8500
d 50.297908 5 7 poisson 500 ------- 0 5.0 7.0 150 8500
r 50.298 5 7 poisson 500 ------- 0 5.0 7.0 71 8421
+ 50.298345 5 7 poisson 500 ------- 0 5.0 7.0 151 8501
d 50.298345 5 7 poisson 500 ------- 0 5.0 7.0 151 8501
+ 50.29943 5 7 poisson 500 ------- 0 5.0 7.0 152 8502
d 50.29943 5 7 poisson 500 ------- 0 5.0 7.0 152 8502
+ 50.299529 5 7 poisson 500 ------- 0 5.0 7.0 153 8503
d 50.299529 5 7 poisson 500 ------- 0 5.0 7.0 153 8503
- 50.3 5 7 poisson 500 ------- 0 5.0 7.0 75 8425
r 50.302 5 7 poisson 500 ------- 0 5.0 7.0 72 8422
- 50.304 5 7 poisson 500 ------- 0 5.0 7.0 76 8426
+ 50.305272 5 7 poisson 500 ------- 0 5.0 7.0 154 8504
r 50.306 5 7 poisson 500 ------- 0 5.0 7.0 73 8423
+ 50.306864 5 7 poisson 500 ------- 0 5.0 7.0 155 8505
+ 50.30727 5 7 poisson 500 ------- 0 5.0 7.0 156 8506
d 50.30727 5 7 poisson 500 ------- 0 5.0 7.0 156 8506
- 50.308 5 7 poisson 500 ------- 0 5.0 7.0 77 8427
+ 50.309393 5 7 poisson 500 ------- 0 5.0 7.0 157 8507
+ 50.309765 5 7 poisson 500 ------- 0 5.0 7.0 158 8508
d 50.309765 5 7 poisson 500 ------- 0 5.0 7.0 158 8508
r 50.31 5 7 poisson 500 ------- 0 5.0 7.0 74 8424
+ 50.310959 5 7 poisson 500 ------- 0 5.0 7.0 159 8509
d 50.310959 5 7 poisson 500 ------- 0 5.0 7.0 159 8509
- 50.312 5 7 poisson 500 ------- 0 5.0 7.0 78 8428
r 50.314 5 7 poisson 500 ------- 0 5.0 7.0 75 8425
+ 50.314302 5 7 poisson 500 ------- 0 5.0 7.0 160 8510
- 50.316 5 7 poisson 500 ------- 0 5.0 7.0 79 8429
+ 50.317727 5 7 poisson 500 ------- 0 5.0 7.0 161 8511
r 50.318 5 7 poisson 500 ------- 0 5.0 7.0 76 8426
- 50.32 5 7 poisson 500 ------- 0 5.0 7.0 80 8430
r 50.322 5 7 poisson 500 ------- 0 5.0 7.0 77 8427
- 50.324 5 7 poisson 500 ------- 0 5.0 7.0 81 8431
r 50.326 5 7 poisson 500 ------- 0 5.0 7.0 78 8428
+ 50.326603 5 7 poisson 500 ------- 0 5.0 7.0 162 8512
+ 50.326849 5 7 poisson 500 ------- 0 5.0 7.0 163 8513
+ 50.327062 5 7 poisson 500 ------- 0 5.0 7.0 164 8514
d 50.327062 5 7 poisson 500 ------- 0 5.0 7.0 164 8514
- 50.328 5 7 poisson 500 ------- 0 5.0 7.0 82 8432
+ 50.329795 5 7 poisson 500 ------- 0 5.0 7.0 165 8515
r 50.33 5 7 poisson 500 ------- 0 5.0 7.0 79 8429
+ 50.330647 5 7 poisson 500 ------- 0 5.0 7.0 166 8516
d 50.330647 5 7 poisson 500 ------- 0 5.0 7.0 166 8516
+ 50.33168 5 7 poisson 500 ------- 0 5.0 7.0 167 8517
d 50.33168 5 7 poisson 500 ------- 0 5.0 7.0 167 8517
- 50.332 5 7 poisson 500 ------- 0 5.0 7.0 83 8433
r 50.334 5 7 poisson 500 ------- 0 5.0 7.0 80 8430
+ 50.334885 5 7 poisson 500 ------- 0 5.0 7.0 168 8518
- 50.336 5 7 poisson 500 ------- 0 5.0 7.0 84 8434
+ 50.336268 5 7 poisson 500 ------- 0 5.0 7.0 169 8519
+ 50.337007 5 7 poisson 500 ------- 0 5.0 7.0 170 8520
d 50.337007 5 7 poisson 500 ------- 0 5.0 7.0 170 8520
r 50.338 5 7 poisson 500 ------- 0 5.0 7.0 81 8431
+ 50.338613 5 7 poisson 500 ------- 0 5.0 7.0 171 8521
d 50.338613 5 7 poisson 500 ------- 0 5.0 7.0 171 8521
- 50.34 5 7 poisson 500 ------- 0 5.0 7.0 85 8435
+ 50.340315 5 7 poisson 500 ------- 0 5.0 7.0 172 8522
+ 50.341994 5 7 poisson 500 ------- 0 5.0 7.0 173 8523
d 50.341994 5 7 poisson 500 ------- 0 5.0 7.0 173 8523
r 50.342 5 7 poisson 500 ------- 0 5.0 7.0 82 8432
+ 50.342586 5 7 poisson 500 ------- 0 5.0 7.0 174 8524
d 50.342586 5 7 poisson 500 ------- 0 5.0 7.0 174 8524
- 50.344 5 7 poisson 500 ------- 0 5.0 7.0 86 8436
+ 50.344238 5 7 poisson 500 ------- 0 5.0 7.0 175 8525
r 50.346 5 7 poisson 500 ------- 0 5.0 7.0 83 8433
- 50.348 5 7 poisson 500 ------- 0 5.0 7.0 87 8437
+ 50.348438 5 7 poisson 500 ------- 0 5.0 7.0 176 8526
r 50.35 5 7 poisson 500 ------- 0 5.0 7.0 84 8434
+ 50.35038 5 7 poisson 500 ------- 0 5.0 7.0 177 8527
d 50.35038 5 7 poisson 500 ------- 0 5.0 7.0 177 8527
+ 50.350846 5 7 poisson 500 ------- 0 5.0 7.0 178 8528
d 50.350846 5 7 poisson 500 ------- 0 5.0 7.0 178 8528
+ 50.351146 5 7 poisson 500 ------- 0 5.0 7.0 179 8529
d 50.351146 5 7 poisson 500 ------- 0 5.0 7.0 179 8529
- 50.352 5 7 poisson 500 ------- 0 5.0 7.0 88 8438
+ 50.352068 5 7 poisson 500 ------- 0 5.0 7.0 180 8530
+ 50.35321 5 7 poisson 500 ------- 0 5.0 7.0 181 8531
d 50.35321 5 7 poisson 500 ------- 0 5.0 7.0 181 8531
r 50.354 5 7 poisson 500 ------- 0 5.0 7.0 85 8435
+ 50.355535 5 7 poisson 500 ------- 0 5.0 7.0 182 8532
d 50.355535 5 7 poisson 500 ------- 0 5.0 7.0 182 8532
+ 50.355776 5 7 poisson 500 ------- 0 5.0 7.0 183 8533
d 50.355776 5 7 poisson 500 ------- 0 5.0 7.0 183 8533
- 50.356 5 7 poisson 500 ------- 0 5.0 7.0 89 8439
r 50.358 5 7 poisson 500 ------- 0 5.0 7.0 86 8436
- 50.36 5 7 poisson 500 ------- 0 5.0 7.0 90 8440
+ 50.360921 5 7 poisson 500 ------- 0 5.0 7.0 184 8534
r 50.362 5 7 poisson 500 ------- 0 5.0 7.0 87 8437
+ 50.363907 5 7 poisson 500 ------- 0 5.0 7.0 185 8535
- 50.364 5 7 poisson 500 ------- 0 5.0 7.0 91 8441
+ 50.364555 5 7 poisson 500 ------- 0 5.0 7.0 186 8536
+ 50.364688 5 7 poisson 500 ------- 0 5.0 7.0 187 8537
d 50.364688 5 7 poisson 500 ------- 0 5.0 7.0 187 8537
r 50.366 5 7 poisson 500 ------- 0 5.0 7.0 88 8438
- 50.368 5 7 poisson 500 ------- 0 5.0 7.0 92 8442
+ 50.368499 5 7 poisson 500 ------- 0 5.0 7.0 188 8538
r 50.37 5 7 poisson 500 ------- 0 5.0 7.0 89 8439
- 50.372 5 7 poisson 500 ------- 0 5.0 7.0 93 8443
+ 50.372893 5 7 poisson 500 ------- 0 5.0 7.0 189 8539
r 50.374 5 7 poisson 500 ------- 0 5.0 7.0 90 8440
+ 50.374646 5 7 poisson 500 ------- 0 5.0 7.0 190 8540
d 50.374646 5 7 poisson 500 ------- 0 5.0 7.0 190 8540
- 50.376 5 7 poisson 500 ------- 0 5.0 7.0 94 8444
+ 50.377246 5 7 poisson 500 ------- 0 5.0 7.0 191 8541
r 50.378 5 7 poisson 500 ------- 0 5.0 7.0 91 8441
+ 50.378198 5 7 poisson 500 ------- 0 5.0 7.0 192 8542
d 50.378198 5 7 poisson 500 ------- 0 5.0 7.0 192 8542
+ 50.379729 5 7 poisson 500 ------- 0 5.0 7.0 193 8543
d 50.379729 5 7 poisson 500 ------- 0 5.0 7.0 193 8543
- 50.38 5 7 poisson 500 ------- 0 5.0 7.0 96 8446
r 50.382 5 7 poisson 500 ------- 0 5.0 7.0 92 8442
+ 50.382761 5 7 poisson 500 ------- 0 5.0 7.0 194 8544
- 50.384 5 7 poisson 500 ------- 0 5.0 7.0 98 8448
r 50.386 5 7 poisson 500 ------- 0 5.0 7.0 93 8443
- 50.388 5 7 poisson 500 ------- 0 5.0 7.0 101 8451
+ 50.388305 5 7 poisson 500 ------- 0 5.0 7.0 195 8545
+ 50.389159 5 7 poisson 500 ------- 0 5.0 7.0 196 8546
r 50.39 5 7 poisson 500 ------- 0 5.0 7.0 94 8444
+ 50.391934 5 7 poisson 500 ------- 0 5.0 7.0 197 8547
d 50.391934 5 7 poisson 500 ------- 0 5.0 7.0 197 8547
- 50.392 5 7 poisson 500 ------- 0 5.0 7.0 102 8452
r 50.394 5 7 poisson 500 ------- 0 5.0 7.0 96 8446
- 50.396 5 7 poisson 500 ------- 0 5.0 7.0 103 8453
+ 50.396239 5 7 poisson 500 ------- 0 5.0 7.0 198 8548
r 50.398 5 7 poisson 500 ------- 0 5.0 7.0 98 8448
- 50.4 5 7 poisson 500 ------- 0 5.0 7.0 104 8454
r 50.402 5 7 poisson 500 ------- 0 5.0 7.0 101 8451
- 50.404 5 7 poisson 500 ------- 0 5.0 7.0 106 8456
+ 50.405035 5 7 poisson 500 ------- 0 5.0 7.0 199 8549
+ 50.405304 5 7 poisson 500 ------- 0 5.0 7.0 200 8550
r 50.406 5 7 poisson 500 ------- 0 5.0 7.0 102 8452
+ 50.407188 5 7 poisson 500 ------- 0 5.0 7.0 201 8551
- 50.408 5 7 poisson 500 ------- 0 5.0 7.0 109 8459
+ 50.408124 5 7 poisson 500 ------- 0 5.0 7.0 202 8552
+ 50.408298 5 7 poisson 500 ------- 0 5.0 7.0 203 8553
d 50.408298 5 7 poisson 500 ------- 0 5.0 7.0 203 8553
r 50.41 5 7 poisson 500 ------- 0 5.0 7.0 103 8453
+ 50.411447 5 7 poisson 500 ------- 0 5.0 7.0 204 8554
d 50.411447 5 7 poisson 500 ------- 0 5.0 7.0 204 8554
- 50.412 5 7 poisson 500 ------- 0 5.0 7.0 110 8460
r 50.414 5 7 poisson 500 ------- 0 5.0 7.0 104 8454
+ 50.414361 5 7 poisson 500 ------- 0 5.0 7.0 205 8555
+ 50.414509 5 7 poisson 500 ------- 0 5.0 7.0 206 8556
d 50.414509 5 7 poisson 500 ------- 0 5.0 7.0 206 8556
- 50.416 5 7 poisson 500 ------- 0 5.0 7.0 111 8461
+ 50.416056 5 7 poisson 500 ------- 0 5.0 7.0 207 8557
+ 50.417977 5 7 poisson 500 ------- 0 5.0 7.0 208 8558
d 50.417977 5 7 poisson 500 ------- 0 5.0 7.0 208 8558
r 50.418 5 7 poisson 500 ------- 0 5.0 7.0 106 8456
- 50.42 5 7 poisson 500 ------- 0 5.0 7.0 112 8462
r 50.422 5 7 poisson 500 ------- 0 5.0 7.0 109 8459
+ 50.423821 5 7 poisson 500 ------- 0 5.0 7.0 209 8559
- 50.424 5 7 poisson 500 ------- 0 5.0 7.0 114 8464
r 50.426 5 7 poisson 500 ------- 0 5.0 7.0 110 8460
+ 50.427812 5 7 poisson 500 ------- 0 5.0 7.0 210 8560
- 50.428 5 7 poisson 500 ------- 0 5.0 7.0 118 8468
+ 50.429655 5 7 poisson 500 ------- 0 5.0 7.0 211 8561
r 50.43 5 7 poisson 500 ------- 0 5.0 7.0 111 8461
+ 50.431234 5 7 poisson 500 ------- 0 5.0 7.0 212 8562
d 50.431234 5 7 poisson 500 ------- 0 5.0 7.0 212 8562
- 50.432 5 7 poisson 500 ------- 0 5.0 7.0 121 8471
+ 50.432172 5 7 poisson 500 ------- 0 5.0 7.0 213 8563
+ 50.433075 5 7 poisson 500 ------- 0 5.0 7.0 214 8564
d 50.433075 5 7 poisson 500 ------- 0 5.0 7.0 214 8564
+ 50.433361 5 7 poisson 500 ------- 0 5.0 7.0 215 8565
d 50.433361 5 7 poisson 500 ------- 0 5.0 7.0 215 8565
r 50.434 5 7 poisson 500 ------- 0 5.0 7.0 112 8462
+ 50.435033 5 7 poisson 500 ------- 0 5.0 7.0 216 8566
d 50.435033 5 7 poisson 500 ------- 0 5.0 7.0 216 8566
+ 50.435271 5 7 poisson 500 ------- 0 5.0 7.0 217 8567
d 50.435271 5 7 poisson 500 ------- 0 5.0 7.0 217 8567
- 50.436 5 7 poisson 500 ------- 0 5.0 7.0 124 8474
r 50.438 5 7 poisson 500 ------- 0 5.0 7.0 114 8464
+ 50.438975 5 7 poisson 500 ------- 0 5.0 7.0 218 8568
- 50.44 5 7 poisson 500 ------- 0 5.0 7.0 125 8475
+ 50.441405 5 7 poisson 500 ------- 0 5.0 7.0 219 8569
r 50.442 5 7 poisson 500 ------- 0 5.0 7.0 118 8468
- 50.444 5 7 poisson 500 ------- 0 5.0 7.0 129 8479
+ 50.444269 5 7 poisson 500 ------- 0 5.0 7.0 220 8570
r 50.446 5 7 poisson 500 ------- 0 5.0 7.0 121 8471
- 50.448 5 7 poisson 500 ------- 0 5.0 7.0 133 8483
+ 50.449401 5 7 poisson 500 ------- 0 5.0 7.0 221 8571
r 50.45 5 7 poisson 500 ------- 0 5.0 7.0 124 8474
- 50.452 5 7 poisson 500 ------- 0 5.0 7.0 134 8484
+ 50.452485 5 7 poisson 500 ------- 0 5.0 7.0 222 8572
+ 50.453028 5 7 poisson 500 ------- 0 5.0 7.0 223 8573
d 50.453028 5 7 poisson 500 ------- 0 5.0 7.0 223 8573
+ 50.453641 5 7 poisson 500 ------- 0 5.0 7.0 224 8574
d 50.453641 5 7 poisson 500 ------- 0 5.0 7.0 224 8574
+ 50.453827 5 7 poisson 500 ------- 0 5.0 7.0 225 8575
d 50.453827 5 7 poisson 500 ------- 0 5.0 7.0 225 8575
r 50.454 5 7 poisson 500 ------- 0 5.0 7.0 125 8475
+ 50.455518 5 7 poisson 500 ------- 0 5.0 7.0 226 8576
d 50.455518 5 7 poisson 500 ------- 0 5.0 7.0 226 8576
- 50.456 5 7 poisson 500 ------- 0 5.0 7.0 135 8485
+ 50.456151 5 7 poisson 500 ------- 0 5.0 7.0 227 8577
r 50.458 5 7 poisson 500 ------- 0 5.0 7.0 129 8479
+ 50.458922 5 7 poisson 500 ------- 0 5.0 7.0 228 8578
d 50.458922 5 7 poisson 500 ------- 0 5.0 7.0 228 8578
- 50.46 5 7 poisson 500 ------- 0 5.0 7.0 138 8488
+ 50.461589 5 7 poisson 500 ------- 0 5.0 7.0 229 8579
r 50.462 5 7 poisson 500 ------- 0 5.0 7.0 133 8483
- 50.464 5 7 poisson 500 ------- 0 5.0 7.0 139 8489
+ 50.464259 5 7 poisson 500 ------- 0 5.0 7.0 230 8580
r 50.466 5 7 poisson 500 ------- 0 5.0 7.0 134 8484
+ 50.466909 5 7 poisson 500 ------- 0 5.0 7.0 231 8581
d 50.466909 5 7 poisson 500 ------- 0 5.0 7.0 231 8581
- 50.468 5 7 poisson 500 ------- 0 5.0 7.0 140 8490
r 50.47 5 7 poisson 500 ------- 0 5.0 7.0 135 8485
- 50.472 5 7 poisson 500 ------- 0 5.0 7.0 141 8491
+ 50.472412 5 7 poisson 500 ------- 0 5.0 7.0 232 8582
+ 50.472809 5 7 poisson 500 ------- 0 5.0 7.0 233 8583
+ 50.472873 5 7 poisson 500 ------- 0 5.0 7.0 234 8584
d 50.472873 5 7 poisson 500 ------- 0 5.0 7.0 234 8584
+ 50.473157 5 7 poisson 500 ------- 0 5.0 7.0 235 8585
d 50.473157 5 7 poisson 500 ------- 0 5.0 7.0 235 8585
r 50.474 5 7 poisson 500 ------- 0 5.0 7.0 138 8488
+ 50.474232 5 7 poisson 500 ------- 0 5.0 7.0 236 8586
d 50.474232 5 7 poisson 500 ------- 0 5.0 7.0 236 8586
+ 50.474863 5 7 poisson 500 ------- 0 5.0 7.0 237 8587
d 50.474863 5 7 poisson 500 ------- 0 5.0 7.0 237 8587
+ 50.475802 5 7 poisson 500 ------- 0 5.0 7.0 238 8588
d 50.475802 5 7 poisson 500 ------- 0 5.0 7.0 238 8588
- 50.476 5 7 poisson 500 ------- 0 5.0 7.0 142 8492
+ 50.476083 5 7 poisson 500 ------- 0 5.0 7.0 239 8589
+ 50.477143 5 7 poisson 500 ------- 0 5.0 7.0 240 8590
d 50.477143 5 7 poisson 500 ------- 0 5.0 7.0 240 8590
+ 50.477772 5 7 poisson 500 ------- 0 5.0 7.0 241 8591
d 50.477772 5 7 poisson 500 ------- 0 5.0 7.0 241 8591
r 50.478 5 7 poisson 500 ------- 0 5.0 7.0 139 8489
- 50.48 5 7 poisson 500 ------- 0 5.0 7.0 143 8493
+ 50.480249 5 7 poisson 500 ------- 0 5.0 7.0 242 8592
r 50.482 5 7 poisson 500 ------- 0 5.0 7.0 140 8490
+ 50.48266 5 7 poisson 500 ------- 0 5.0 7.0 243 8593
d 50.48266 5 7 poisson 500 ------- 0 5.0 7.0 243 8593
+ 50.482761 5 7 poisson 500 ------- 0 5.0 7.0 244 8594
d 50.482761 5 7 poisson 500 ------- 0 5.0 7.0 244 8594
+ 50.48316 5 7 poisson 500 ------- 0 5.0 7.0 245 8595
d 50.48316 5 7 poisson 500 ------- 0 5.0 7.0 245 8595
+ 50.483604 5 7 poisson 500 ------- 0 5.0 7.0 246 8596
d 50.483604 5 7 poisson 500 ------- 0 5.0 7.0 246 8596
- 50.484 5 7 poisson 500 ------- 0 5.0 7.0 144 8494
+ 50.484792 5 7 poisson 500 ------- 0 5.0 7.0 247 8597
r 50.486 5 7 poisson 500 ------- 0 5.0 7.0 141 8491