+ 40 4 7 poisson 500 ------- 0 4.0 7.0 0 4606
- 40 4 7 poisson 500 ------- 0 4.0 7.0 0 4606
+ 40.002133 4 7 poisson 500 ------- 0 4.0 7.0 1 4607
+ 40.003966 4 7 poisson 500 ------- 0 4.0 7.0 2 4608
- 40.004 4 7 poisson 500 ------- 0 4.0 7.0 1 4607
- 40.008 4 7 poisson 500 ------- 0 4.0 7.0 2 4608
+ 40.009693 4 7 poisson 500 ------- 0 4.0 7.0 3 4609
- 40.012 4 7 poisson 500 ------- 0 4.0 7.0 3 4609
+ 40.013855 4 7 poisson 500 ------- 0 4.0 7.0 4 4610
r 40.014 4 7 poisson 500 ------- 0 4.0 7.0 0 4606
- 40.016 4 7 poisson 500 ------- 0 4.0 7.0 4 4610
+ 40.017445 4 7 poisson 500 ------- 0 4.0 7.0 5 4611
r 40.018 4 7 poisson 500 ------- 0 4.0 7.0 1 4607
- 40.02 4 7 poisson 500 ------- 0 4.0 7.0 5 4611
+ 40.020028 4 7 poisson 500 ------- 0 4.0 7.0 6 4612
+ 40.02196 4 7 poisson 500 ------- 0 4.0 7.0 7 4613
r 40.022 4 7 poisson 500 ------- 0 4.0 7.0 2 4608
+ 40.023326 4 7 poisson 500 ------- 0 4.0 7.0 8 4614
+ 40.023439 4 7 poisson 500 ------- 0 4.0 7.0 9 4615
- 40.024 4 7 poisson 500 ------- 0 4.0 7.0 6 4612
+ 40.024541 4 7 poisson 500 ------- 0 4.0 7.0 10 4616
r 40.026 4 7 poisson 500 ------- 0 4.0 7.0 3 4609
- 40.028 4 7 poisson 500 ------- 0 4.0 7.0 7 4613
r 40.03 4 7 poisson 500 ------- 0 4.0 7.0 4 4610
+ 40.031142 4 7 poisson 500 ------- 0 4.0 7.0 11 4617
- 40.032 4 7 poisson 500 ------- 0 4.0 7.0 8 4614
r 40.034 4 7 poisson 500 ------- 0 4.0 7.0 5 4611
- 40.036 4 7 poisson 500 ------- 0 4.0 7.0 9 4615
r 40.038 4 7 poisson 500 ------- 0 4.0 7.0 6 4612
- 40.04 4 7 poisson 500 ------- 0 4.0 7.0 10 4616
r 40.042 4 7 poisson 500 ------- 0 4.0 7.0 7 4613
- 40.044 4 7 poisson 500 ------- 0 4.0 7.0 11 4617
r 40.046 4 7 poisson 500 ------- 0 4.0 7.0 8 4614
r 40.05 4 7 poisson 500 ------- 0 4.0 7.0 9 4615
+ 40.052443 4 7 poisson 500 ------- 0 4.0 7.0 12 4618
- 40.052443 4 7 poisson 500 ------- 0 4.0 7.0 12 4618
+ 40.053414 4 7 poisson 500 ------- 0 4.0 7.0 13 4619
r 40.054 4 7 poisson 500 ------- 0 4.0 7.0 10 4616
+ 40.05623 4 7 poisson 500 ------- 0 4.0 7.0 14 4620
- 40.056443 4 7 poisson 500 ------- 0 4.0 7.0 13 4619
r 40.058 4 7 poisson 500 ------- 0 4.0 7.0 11 4617
- 40.060443 4 7 poisson 500 ------- 0 4.0 7.0 14 4620
+ 40.063319 4 7 poisson 500 ------- 0 4.0 7.0 15 4621
- 40.064443 4 7 poisson 500 ------- 0 4.0 7.0 15 4621
r 40.066443 4 7 poisson 500 ------- 0 4.0 7.0 12 4618
+ 40.06707 4 7 poisson 500 ------- 0 4.0 7.0 16 4622
+ 40.068179 4 7 poisson 500 ------- 0 4.0 7.0 17 4623
- 40.068443 4 7 poisson 500 ------- 0 4.0 7.0 16 4622
r 40.070443 4 7 poisson 500 ------- 0 4.0 7.0 13 4619
+ 40.071835 4 7 poisson 500 ------- 0 4.0 7.0 18 4624
+ 40.072161 4 7 poisson 500 ------- 0 4.0 7.0 19 4625
- 40.072443 4 7 poisson 500 ------- 0 4.0 7.0 17 4623
+ 40.072904 4 7 poisson 500 ------- 0 4.0 7.0 20 4626
r 40.074443 4 7 poisson 500 ------- 0 4.0 7.0 14 4620
- 40.076443 4 7 poisson 500 ------- 0 4.0 7.0 18 4624
r 40.078443 4 7 poisson 500 ------- 0 4.0 7.0 15 4621
- 40.080443 4 7 poisson 500 ------- 0 4.0 7.0 19 4625
+ 40.08062 4 7 poisson 500 ------- 0 4.0 7.0 21 4627
r 40.082443 4 7 poisson 500 ------- 0 4.0 7.0 16 4622
+ 40.083156 4 7 poisson 500 ------- 0 4.0 7.0 22 4628
+ 40.083991 4 7 poisson 500 ------- 0 4.0 7.0 23 4629
+ 40.084029 4 7 poisson 500 ------- 0 4.0 7.0 24 4630
- 40.084443 4 7 poisson 500 ------- 0 4.0 7.0 20 4626
+ 40.084554 4 7 poisson 500 ------- 0 4.0 7.0 25 4631
+ 40.084935 4 7 poisson 500 ------- 0 4.0 7.0 26 4632
r 40.086443 4 7 poisson 500 ------- 0 4.0 7.0 17 4623
+ 40.0875 4 7 poisson 500 ------- 0 4.0 7.0 27 4633
- 40.088443 4 7 poisson 500 ------- 0 4.0 7.0 21 4627
r 40.090443 4 7 poisson 500 ------- 0 4.0 7.0 18 4624
- 40.092443 4 7 poisson 500 ------- 0 4.0 7.0 22 4628
r 40.094443 4 7 poisson 500 ------- 0 4.0 7.0 19 4625
- 40.096443 4 7 poisson 500 ------- 0 4.0 7.0 23 4629
+ 40.096941 4 7 poisson 500 ------- 0 4.0 7.0 28 4634
r 40.098443 4 7 poisson 500 ------- 0 4.0 7.0 20 4626
- 40.100443 4 7 poisson 500 ------- 0 4.0 7.0 24 4630
+ 40.102055 4 7 poisson 500 ------- 0 4.0 7.0 29 4635
r 40.102443 4 7 poisson 500 ------- 0 4.0 7.0 21 4627
+ 40.103911 4 7 poisson 500 ------- 0 4.0 7.0 30 4636
- 40.104443 4 7 poisson 500 ------- 0 4.0 7.0 25 4631
+ 40.104836 4 7 poisson 500 ------- 0 4.0 7.0 31 4637
+ 40.105525 4 7 poisson 500 ------- 0 4.0 7.0 32 4638
r 40.106443 4 7 poisson 500 ------- 0 4.0 7.0 22 4628
+ 40.107792 4 7 poisson 500 ------- 0 4.0 7.0 33 4639
- 40.108443 4 7 poisson 500 ------- 0 4.0 7.0 26 4632
r 40.110443 4 7 poisson 500 ------- 0 4.0 7.0 23 4629
+ 40.110845 4 7 poisson 500 ------- 0 4.0 7.0 34 4640
- 40.112443 4 7 poisson 500 ------- 0 4.0 7.0 27 4633
+ 40.113564 4 7 poisson 500 ------- 0 4.0 7.0 35 4641
+ 40.113957 4 7 poisson 500 ------- 0 4.0 7.0 36 4642
r 40.114443 4 7 poisson 500 ------- 0 4.0 7.0 24 4630
+ 40.114484 4 7 poisson 500 ------- 0 4.0 7.0 37 4643
- 40.116443 4 7 poisson 500 ------- 0 4.0 7.0 28 4634
r 40.118443 4 7 poisson 500 ------- 0 4.0 7.0 25 4631
+ 40.119765 4 7 poisson 500 ------- 0 4.0 7.0 38 4644
- 40.120443 4 7 poisson 500 ------- 0 4.0 7.0 29 4635
r 40.122443 4 7 poisson 500 ------- 0 4.0 7.0 26 4632
- 40.124443 4 7 poisson 500 ------- 0 4.0 7.0 30 4636
+ 40.125137 4 7 poisson 500 ------- 0 4.0 7.0 39 4645
r 40.126443 4 7 poisson 500 ------- 0 4.0 7.0 27 4633
+ 40.126489 4 7 poisson 500 ------- 0 4.0 7.0 40 4646
+ 40.127109 4 7 poisson 500 ------- 0 4.0 7.0 41 4647
+ 40.127207 4 7 poisson 500 ------- 0 4.0 7.0 42 4648
- 40.128443 4 7 poisson 500 ------- 0 4.0 7.0 31 4637
r 40.130443 4 7 poisson 500 ------- 0 4.0 7.0 28 4634
- 40.132443 4 7 poisson 500 ------- 0 4.0 7.0 32 4638
r 40.134443 4 7 poisson 500 ------- 0 4.0 7.0 29 4635
+ 40.135883 4 7 poisson 500 ------- 0 4.0 7.0 43 4649
- 40.136443 4 7 poisson 500 ------- 0 4.0 7.0 33 4639
+ 40.136637 4 7 poisson 500 ------- 0 4.0 7.0 44 4650
r 40.138443 4 7 poisson 500 ------- 0 4.0 7.0 30 4636
+ 40.138591 4 7 poisson 500 ------- 0 4.0 7.0 45 4651
- 40.140443 4 7 poisson 500 ------- 0 4.0 7.0 34 4640
r 40.142443 4 7 poisson 500 ------- 0 4.0 7.0 31 4637
+ 40.143288 4 7 poisson 500 ------- 0 4.0 7.0 46 4652
+ 40.144347 4 7 poisson 500 ------- 0 4.0 7.0 47 4653
- 40.144443 4 7 poisson 500 ------- 0 4.0 7.0 35 4641
+ 40.14482 4 7 poisson 500 ------- 0 4.0 7.0 48 4654
r 40.146443 4 7 poisson 500 ------- 0 4.0 7.0 32 4638
+ 40.146681 4 7 poisson 500 ------- 0 4.0 7.0 49 4655
- 40.148443 4 7 poisson 500 ------- 0 4.0 7.0 36 4642
r 40.150443 4 7 poisson 500 ------- 0 4.0 7.0 33 4639
- 40.152443 4 7 poisson 500 ------- 0 4.0 7.0 37 4643
+ 40.15254 4 7 poisson 500 ------- 0 4.0 7.0 50 4656
+ 40.153038 4 7 poisson 500 ------- 0 4.0 7.0 51 4657
r 40.154443 4 7 poisson 500 ------- 0 4.0 7.0 34 4640
+ 40.155277 4 7 poisson 500 ------- 0 4.0 7.0 52 4658
- 40.156443 4 7 poisson 500 ------- 0 4.0 7.0 38 4644
+ 40.157475 4 7 poisson 500 ------- 0 4.0 7.0 53 4659
+ 40.158336 4 7 poisson 500 ------- 0 4.0 7.0 54 4660
r 40.158443 4 7 poisson 500 ------- 0 4.0 7.0 35 4641
+ 40.158976 4 7 poisson 500 ------- 0 4.0 7.0 55 4661
+ 40.159785 4 7 poisson 500 ------- 0 4.0 7.0 56 4662
- 40.160443 4 7 poisson 500 ------- 0 4.0 7.0 39 4645
+ 40.162111 4 7 poisson 500 ------- 0 4.0 7.0 57 4663
+ 40.162324 4 7 poisson 500 ------- 0 4.0 7.0 58 4664
r 40.162443 4 7 poisson 500 ------- 0 4.0 7.0 36 4642
+ 40.162926 4 7 poisson 500 ------- 0 4.0 7.0 59 4665
+ 40.163761 4 7 poisson 500 ------- 0 4.0 7.0 60 4666
+ 40.164186 4 7 poisson 500 ------- 0 4.0 7.0 61 4667
- 40.164443 4 7 poisson 500 ------- 0 4.0 7.0 40 4646
+ 40.166216 4 7 poisson 500 ------- 0 4.0 7.0 62 4668
r 40.166443 4 7 poisson 500 ------- 0 4.0 7.0 37 4643
- 40.168443 4 7 poisson 500 ------- 0 4.0 7.0 41 4647
+ 40.17037 4 7 poisson 500 ------- 0 4.0 7.0 63 4669
r 40.170443 4 7 poisson 500 ------- 0 4.0 7.0 38 4644
- 40.172443 4 7 poisson 500 ------- 0 4.0 7.0 42 4648
+ 40.173239 4 7 poisson 500 ------- 0 4.0 7.0 64 4670
+ 40.173249 4 7 poisson 500 ------- 0 4.0 7.0 65 4671
r 40.174443 4 7 poisson 500 ------- 0 4.0 7.0 39 4645
- 40.176443 4 7 poisson 500 ------- 0 4.0 7.0 43 4649
+ 40.177402 4 7 poisson 500 ------- 0 4.0 7.0 66 4672
r 40.178443 4 7 poisson 500 ------- 0 4.0 7.0 40 4646
+ 40.179087 4 7 poisson 500 ------- 0 4.0 7.0 67 4673
- 40.180443 4 7 poisson 500 ------- 0 4.0 7.0 44 4650
r 40.182443 4 7 poisson 500 ------- 0 4.0 7.0 41 4647
+ 40.184084 4 7 poisson 500 ------- 0 4.0 7.0 68 4674
- 40.184443 4 7 poisson 500 ------- 0 4.0 7.0 45 4651
r 40.186443 4 7 poisson 500 ------- 0 4.0 7.0 42 4648
- 40.188443 4 7 poisson 500 ------- 0 4.0 7.0 46 4652
+ 40.188831 4 7 poisson 500 ------- 0 4.0 7.0 69 4675
+ 40.189543 4 7 poisson 500 ------- 0 4.0 7.0 70 4676
+ 40.189662 4 7 poisson 500 ------- 0 4.0 7.0 71 4677
+ 40.189898 4 7 poisson 500 ------- 0 4.0 7.0 72 4678
r 40.190443 4 7 poisson 500 ------- 0 4.0 7.0 43 4649
+ 40.191759 4 7 poisson 500 ------- 0 4.0 7.0 73 4679
+ 40.192111 4 7 poisson 500 ------- 0 4.0 7.0 74 4680
- 40.192443 4 7 poisson 500 ------- 0 4.0 7.0 47 4653
r 40.194443 4 7 poisson 500 ------- 0 4.0 7.0 44 4650
- 40.196443 4 7 poisson 500 ------- 0 4.0 7.0 48 4654
+ 40.197844 4 7 poisson 500 ------- 0 4.0 7.0 75 4681
r 40.198443 4 7 poisson 500 ------- 0 4.0 7.0 45 4651
- 40.200443 4 7 poisson 500 ------- 0 4.0 7.0 49 4655
+ 40.201029 4 7 poisson 500 ------- 0 4.0 7.0 76 4682
+ 40.201553 4 7 poisson 500 ------- 0 4.0 7.0 77 4683
r 40.202443 4 7 poisson 500 ------- 0 4.0 7.0 46 4652
- 40.204443 4 7 poisson 500 ------- 0 4.0 7.0 50 4656
r 40.206443 4 7 poisson 500 ------- 0 4.0 7.0 47 4653
+ 40.208039 4 7 poisson 500 ------- 0 4.0 7.0 78 4684
- 40.208443 4 7 poisson 500 ------- 0 4.0 7.0 51 4657
+ 40.209135 4 7 poisson 500 ------- 0 4.0 7.0 79 4685
+ 40.209378 4 7 poisson 500 ------- 0 4.0 7.0 80 4686
r 40.210443 4 7 poisson 500 ------- 0 4.0 7.0 48 4654
+ 40.211183 4 7 poisson 500 ------- 0 4.0 7.0 81 4687
- 40.212443 4 7 poisson 500 ------- 0 4.0 7.0 52 4658
r 40.214443 4 7 poisson 500 ------- 0 4.0 7.0 49 4655
+ 40.215743 4 7 poisson 500 ------- 0 4.0 7.0 82 4688
+ 40.215745 4 7 poisson 500 ------- 0 4.0 7.0 83 4689
- 40.216443 4 7 poisson 500 ------- 0 4.0 7.0 53 4659
r 40.218443 4 7 poisson 500 ------- 0 4.0 7.0 50 4656
+ 40.219547 4 7 poisson 500 ------- 0 4.0 7.0 84 4690
+ 40.220374 4 7 poisson 500 ------- 0 4.0 7.0 85 4691
- 40.220443 4 7 poisson 500 ------- 0 4.0 7.0 54 4660
r 40.222443 4 7 poisson 500 ------- 0 4.0 7.0 51 4657
- 40.224443 4 7 poisson 500 ------- 0 4.0 7.0 55 4661
+ 40.225057 4 7 poisson 500 ------- 0 4.0 7.0 86 4692
r 40.226443 4 7 poisson 500 ------- 0 4.0 7.0 52 4658
+ 40.22825 4 7 poisson 500 ------- 0 4.0 7.0 87 4693
- 40.228443 4 7 poisson 500 ------- 0 4.0 7.0 56 4662
+ 40.229701 4 7 poisson 500 ------- 0 4.0 7.0 88 4694
+ 40.230178 4 7 poisson 500 ------- 0 4.0 7.0 89 4695
r 40.230443 4 7 poisson 500 ------- 0 4.0 7.0 53 4659
- 40.232443 4 7 poisson 500 ------- 0 4.0 7.0 57 4663
+ 40.232635 4 7 poisson 500 ------- 0 4.0 7.0 90 4696
+ 40.233754 4 7 poisson 500 ------- 0 4.0 7.0 91 4697
r 40.234443 4 7 poisson 500 ------- 0 4.0 7.0 54 4660
+ 40.235121 4 7 poisson 500 ------- 0 4.0 7.0 92 4698
+ 40.235152 4 7 poisson 500 ------- 0 4.0 7.0 93 4699
- 40.236443 4 7 poisson 500 ------- 0 4.0 7.0 58 4664
+ 40.238006 4 7 poisson 500 ------- 0 4.0 7.0 94 4700
r 40.238443 4 7 poisson 500 ------- 0 4.0 7.0 55 4661
+ 40.23884 4 7 poisson 500 ------- 0 4.0 7.0 95 4701
- 40.240443 4 7 poisson 500 ------- 0 4.0 7.0 59 4665
+ 40.240581 4 7 poisson 500 ------- 0 4.0 7.0 96 4702
+ 40.240948 4 7 poisson 500 ------- 0 4.0 7.0 97 4703
+ 40.24138 4 7 poisson 500 ------- 0 4.0 7.0 98 4704
+ 40.241585 4 7 poisson 500 ------- 0 4.0 7.0 99 4705
+ 40.242308 4 7 poisson 500 ------- 0 4.0 7.0 100 4706
r 40.242443 4 7 poisson 500 ------- 0 4.0 7.0 56 4662
+ 40.244195 4 7 poisson 500 ------- 0 4.0 7.0 101 4707
- 40.244443 4 7 poisson 500 ------- 0 4.0 7.0 60 4666
+ 40.24475 4 7 poisson 500 ------- 0 4.0 7.0 102 4708
r 40.246443 4 7 poisson 500 ------- 0 4.0 7.0 57 4663
- 40.248443 4 7 poisson 500 ------- 0 4.0 7.0 61 4667
r 40.250443 4 7 poisson 500 ------- 0 4.0 7.0 58 4664
+ 40.250861 4 7 poisson 500 ------- 0 4.0 7.0 103 4709
- 40.252443 4 7 poisson 500 ------- 0 4.0 7.0 62 4668
+ 40.253309 4 7 poisson 500 ------- 0 4.0 7.0 104 4710
+ 40.253352 4 7 poisson 500 ------- 0 4.0 7.0 105 4711
+ 40.25403 4 7 poisson 500 ------- 0 4.0 7.0 106 4712
r 40.254443 4 7 poisson 500 ------- 0 4.0 7.0 59 4665
+ 40.255768 4 7 poisson 500 ------- 0 4.0 7.0 107 4713
+ 40.255875 4 7 poisson 500 ------- 0 4.0 7.0 108 4714
- 40.256443 4 7 poisson 500 ------- 0 4.0 7.0 63 4669
+ 40.257192 4 7 poisson 500 ------- 0 4.0 7.0 109 4715
+ 40.257692 4 7 poisson 500 ------- 0 4.0 7.0 110 4716
r 40.258443 4 7 poisson 500 ------- 0 4.0 7.0 60 4666
+ 40.260131 4 7 poisson 500 ------- 0 4.0 7.0 111 4717
- 40.260443 4 7 poisson 500 ------- 0 4.0 7.0 64 4670
+ 40.2617 4 7 poisson 500 ------- 0 4.0 7.0 112 4718
+ 40.262013 4 7 poisson 500 ------- 0 4.0 7.0 113 4719
r 40.262443 4 7 poisson 500 ------- 0 4.0 7.0 61 4667
- 40.264443 4 7 poisson 500 ------- 0 4.0 7.0 65 4671
r 40.266443 4 7 poisson 500 ------- 0 4.0 7.0 62 4668
+ 40.268301 4 7 poisson 500 ------- 0 4.0 7.0 114 4720
- 40.268443 4 7 poisson 500 ------- 0 4.0 7.0 66 4672
r 40.270443 4 7 poisson 500 ------- 0 4.0 7.0 63 4669
- 40.272443 4 7 poisson 500 ------- 0 4.0 7.0 67 4673
+ 40.274045 4 7 poisson 500 ------- 0 4.0 7.0 115 4721
r 40.274443 4 7 poisson 500 ------- 0 4.0 7.0 64 4670
+ 40.275048 4 7 poisson 500 ------- 0 4.0 7.0 116 4722
+ 40.275644 4 7 poisson 500 ------- 0 4.0 7.0 117 4723
d 40.275644 4 7 poisson 500 ------- 0 4.0 7.0 117 4723
- 40.276443 4 7 poisson 500 ------- 0 4.0 7.0 68 4674
r 40.278443 4 7 poisson 500 ------- 0 4.0 7.0 65 4671
- 40.280443 4 7 poisson 500 ------- 0 4.0 7.0 69 4675
r 40.282443 4 7 poisson 500 ------- 0 4.0 7.0 66 4672
- 40.284443 4 7 poisson 500 ------- 0 4.0 7.0 70 4676
+ 40.285042 4 7 poisson 500 ------- 0 4.0 7.0 118 4724
+ 40.285087 4 7 poisson 500 ------- 0 4.0 7.0 119 4725
+ 40.285259 4 7 poisson 500 ------- 0 4.0 7.0 120 4726
r 40.286443 4 7 poisson 500 ------- 0 4.0 7.0 67 4673
+ 40.287758 4 7 poisson 500 ------- 0 4.0 7.0 121 4727
d 40.287758 4 7 poisson 500 ------- 0 4.0 7.0 121 4727
- 40.288443 4 7 poisson 500 ------- 0 4.0 7.0 71 4677
r 40.290443 4 7 poisson 500 ------- 0 4.0 7.0 68 4674
+ 40.291035 4 7 poisson 500 ------- 0 4.0 7.0 122 4728
+ 40.291232 4 7 poisson 500 ------- 0 4.0 7.0 123 4729
d 40.291232 4 7 poisson 500 ------- 0 4.0 7.0 123 4729
+ 40.292211 4 7 poisson 500 ------- 0 4.0 7.0 124 4730
d 40.292211 4 7 poisson 500 ------- 0 4.0 7.0 124 4730
- 40.292443 4 7 poisson 500 ------- 0 4.0 7.0 72 4678
+ 40.292491 4 7 poisson 500 ------- 0 4.0 7.0 125 4731
+ 40.293859 4 7 poisson 500 ------- 0 4.0 7.0 126 4732
d 40.293859 4 7 poisson 500 ------- 0 4.0 7.0 126 4732
r 40.294443 4 7 poisson 500 ------- 0 4.0 7.0 69 4675
+ 40.295515 4 7 poisson 500 ------- 0 4.0 7.0 127 4733
d 40.295515 4 7 poisson 500 ------- 0 4.0 7.0 127 4733
- 40.296443 4 7 poisson 500 ------- 0 4.0 7.0 73 4679
r 40.298443 4 7 poisson 500 ------- 0 4.0 7.0 70 4676
+ 40.299601 4 7 poisson 500 ------- 0 4.0 7.0 128 4734
- 40.300443 4 7 poisson 500 ------- 0 4.0 7.0 74 4680
r 40.302443 4 7 poisson 500 ------- 0 4.0 7.0 71 4677
+ 40.304367 4 7 poisson 500 ------- 0 4.0 7.0 129 4735
- 40.304443 4 7 poisson 500 ------- 0 4.0 7.0 75 4681
r 40.306443 4 7 poisson 500 ------- 0 4.0 7.0 72 4678
- 40.308443 4 7 poisson 500 ------- 0 4.0 7.0 76 4682
+ 40.309909 4 7 poisson 500 ------- 0 4.0 7.0 130 4736
r 40.310443 4 7 poisson 500 ------- 0 4.0 7.0 73 4679
+ 40.310872 4 7 poisson 500 ------- 0 4.0 7.0 131 4737
+ 40.312335 4 7 poisson 500 ------- 0 4.0 7.0 132 4738
d 40.312335 4 7 poisson 500 ------- 0 4.0 7.0 132 4738
- 40.312443 4 7 poisson 500 ------- 0 4.0 7.0 77 4683
r 40.314443 4 7 poisson 500 ------- 0 4.0 7.0 74 4680
+ 40.314919 4 7 poisson 500 ------- 0 4.0 7.0 133 4739
- 40.316443 4 7 poisson 500 ------- 0 4.0 7.0 78 4684
r 40.318443 4 7 poisson 500 ------- 0 4.0 7.0 75 4681
+ 40.318844 4 7 poisson 500 ------- 0 4.0 7.0 134 4740
+ 40.319322 4 7 poisson 500 ------- 0 4.0 7.0 135 4741
d 40.319322 4 7 poisson 500 ------- 0 4.0 7.0 135 4741
- 40.320443 4 7 poisson 500 ------- 0 4.0 7.0 79 4685
r 40.322443 4 7 poisson 500 ------- 0 4.0 7.0 76 4682
+ 40.323729 4 7 poisson 500 ------- 0 4.0 7.0 136 4742
+ 40.324308 4 7 poisson 500 ------- 0 4.0 7.0 137 4743
d 40.324308 4 7 poisson 500 ------- 0 4.0 7.0 137 4743
- 40.324443 4 7 poisson 500 ------- 0 4.0 7.0 80 4686
+ 40.325604 4 7 poisson 500 ------- 0 4.0 7.0 138 4744
r 40.326443 4 7 poisson 500 ------- 0 4.0 7.0 77 4683
+ 40.327601 4 7 poisson 500 ------- 0 4.0 7.0 139 4745
d 40.327601 4 7 poisson 500 ------- 0 4.0 7.0 139 4745
- 40.328443 4 7 poisson 500 ------- 0 4.0 7.0 81 4687
r 40.330443 4 7 poisson 500 ------- 0 4.0 7.0 78 4684
- 40.332443 4 7 poisson 500 ------- 0 4.0 7.0 82 4688
+ 40.332658 4 7 poisson 500 ------- 0 4.0 7.0 140 4746
r 40.334443 4 7 poisson 500 ------- 0 4.0 7.0 79 4685
- 40.336443 4 7 poisson 500 ------- 0 4.0 7.0 83 4689
+ 40.337024 4 7 poisson 500 ------- 0 4.0 7.0 141 4747
r 40.338443 4 7 poisson 500 ------- 0 4.0 7.0 80 4686
+ 40.338618 4 7 poisson 500 ------- 0 4.0 7.0 142 4748
- 40.340443 4 7 poisson 500 ------- 0 4.0 7.0 84 4690
r 40.342443 4 7 poisson 500 ------- 0 4.0 7.0 81 4687
+ 40.342951 4 7 poisson 500 ------- 0 4.0 7.0 143 4749
+ 40.344302 4 7 poisson 500 ------- 0 4.0 7.0 144 4750
d 40.344302 4 7 poisson 500 ------- 0 4.0 7.0 144 4750
- 40.344443 4 7 poisson 500 ------- 0 4.0 7.0 85 4691
r 40.346443 4 7 poisson 500 ------- 0 4.0 7.0 82 4688
+ 40.347169 4 7 poisson 500 ------- 0 4.0 7.0 145 4751
- 40.348443 4 7 poisson 500 ------- 0 4.0 7.0 86 4692
+ 40.349528 4 7 poisson 500 ------- 0 4.0 7.0 146 4752
r 40.350443 4 7 poisson 500 ------- 0 4.0 7.0 83 4689
+ 40.350655 4 7 poisson 500 ------- 0 4.0 7.0 147 4753
d 40.350655 4 7 poisson 500 ------- 0 4.0 7.0 147 4753
+ 40.352391 4 7 poisson 500 ------- 0 4.0 7.0 148 4754
d 40.352391 4 7 poisson 500 ------- 0 4.0 7.0 148 4754
- 40.352443 4 7 poisson 500 ------- 0 4.0 7.0 87 4693
r 40.354443 4 7 poisson 500 ------- 0 4.0 7.0 84 4690
+ 40.354783 4 7 poisson 500 ------- 0 4.0 7.0 149 4755
- 40.356443 4 7 poisson 500 ------- 0 4.0 7.0 88 4694
r 40.358443 4 7 poisson 500 ------- 0 4.0 7.0 85 4691
+ 40.358651 4 7 poisson 500 ------- 0 4.0 7.0 150 4756
- 40.360443 4 7 poisson 500 ------- 0 4.0 7.0 89 4695
+ 40.361056 4 7 poisson 500 ------- 0 4.0 7.0 151 4757
r 40.362443 4 7 poisson 500 ------- 0 4.0 7.0 86 4692
+ 40.362802 4 7 poisson 500 ------- 0 4.0 7.0 152 4758
d 40.362802 4 7 poisson 500 ------- 0 4.0 7.0 152 4758
- 40.364443 4 7 poisson 500 ------- 0 4.0 7.0 90 4696
r 40.366443 4 7 poisson 500 ------- 0 4.0 7.0 87 4693
+ 40.367678 4 7 poisson 500 ------- 0 4.0 7.0 153 4759
- 40.368443 4 7 poisson 500 ------- 0 4.0 7.0 91 4697
r 40.370443 4 7 poisson 500 ------- 0 4.0 7.0 88 4694
- 40.372443 4 7 poisson 500 ------- 0 4.0 7.0 92 4698
r 40.374443 4 7 poisson 500 ------- 0 4.0 7.0 89 4695
+ 40.37575 4 7 poisson 500 ------- 0 4.0 7.0 154 4760
- 40.376443 4 7 poisson 500 ------- 0 4.0 7.0 93 4699
+ 40.377603 4 7 poisson 500 ------- 0 4.0 7.0 155 4761
r 40.378443 4 7 poisson 500 ------- 0 4.0 7.0 90 4696
- 40.380443 4 7 poisson 500 ------- 0 4.0 7.0 94 4700
+ 40.381326 4 7 poisson 500 ------- 0 4.0 7.0 156 4762
r 40.382443 4 7 poisson 500 ------- 0 4.0 7.0 91 4697
- 40.384443 4 7 poisson 500 ------- 0 4.0 7.0 95 4701
+ 40.384645 4 7 poisson 500 ------- 0 4.0 7.0 157 4763
r 40.386443 4 7 poisson 500 ------- 0 4.0 7.0 92 4698
- 40.388443 4 7 poisson 500 ------- 0 4.0 7.0 96 4702
r 40.390443 4 7 poisson 500 ------- 0 4.0 7.0 93 4699
+ 40.391829 4 7 poisson 500 ------- 0 4.0 7.0 158 4764
- 40.392443 4 7 poisson 500 ------- 0 4.0 7.0 97 4703
r 40.394443 4 7 poisson 500 ------- 0 4.0 7.0 94 4700
+ 40.395219 4 7 poisson 500 ------- 0 4.0 7.0 159 4765
- 40.396443 4 7 poisson 500 ------- 0 4.0 7.0 98 4704
+ 40.396484 4 7 poisson 500 ------- 0 4.0 7.0 160 4766
+ 40.396743 4 7 poisson 500 ------- 0 4.0 7.0 161 4767
+ 40.397449 4 7 poisson 500 ------- 0 4.0 7.0 162 4768
d 40.397449 4 7 poisson 500 ------- 0 4.0 7.0 162 4768
r 40.398443 4 7 poisson 500 ------- 0 4.0 7.0 95 4701
+ 40.399859 4 7 poisson 500 ------- 0 4.0 7.0 163 4769
d 40.399859 4 7 poisson 500 ------- 0 4.0 7.0 163 4769
- 40.400443 4 7 poisson 500 ------- 0 4.0 7.0 99 4705
+ 40.402153 4 7 poisson 500 ------- 0 4.0 7.0 164 4770
r 40.402443 4 7 poisson 500 ------- 0 4.0 7.0 96 4702
+ 40.403067 4 7 poisson 500 ------- 0 4.0 7.0 165 4771
d 40.403067 4 7 poisson 500 ------- 0 4.0 7.0 165 4771
- 40.404443 4 7 poisson 500 ------- 0 4.0 7.0 100 4706
+ 40.404467 4 7 poisson 500 ------- 0 4.0 7.0 166 4772
+ 40.406366 4 7 poisson 500 ------- 0 4.0 7.0 167 4773
d 40.406366 4 7 poisson 500 ------- 0 4.0 7.0 167 4773
r 40.406443 4 7 poisson 500 ------- 0 4.0 7.0 97 4703
+ 40.407759 4 7 poisson 500 ------- 0 4.0 7.0 168 4774
d 40.407759 4 7 poisson 500 ------- 0 4.0 7.0 168 4774
- 40.408443 4 7 poisson 500 ------- 0 4.0 7.0 101 4707
r 40.410443 4 7 poisson 500 ------- 0 4.0 7.0 98 4704
- 40.412443 4 7 poisson 500 ------- 0 4.0 7.0 102 4708
+ 40.413423 4 7 poisson 500 ------- 0 4.0 7.0 169 4775
+ 40.414159 4 7 poisson 500 ------- 0 4.0 7.0 170 4776
r 40.414443 4 7 poisson 500 ------- 0 4.0 7.0 99 4705
+ 40.414984 4 7 poisson 500 ------- 0 4.0 7.0 171 4777
d 40.414984 4 7 poisson 500 ------- 0 4.0 7.0 171 4777
- 40.416443 4 7 poisson 500 ------- 0 4.0 7.0 103 4709
+ 40.417144 4 7 poisson 500 ------- 0 4.0 7.0 172 4778
r 40.418443 4 7 poisson 500 ------- 0 4.0 7.0 100 4706
- 40.420443 4 7 poisson 500 ------- 0 4.0 7.0 104 4710
+ 40.421072 4 7 poisson 500 ------- 0 4.0 7.0 173 4779
r 40.422443 4 7 poisson 500 ------- 0 4.0 7.0 101 4707
+ 40.422663 4 7 poisson 500 ------- 0 4.0 7.0 174 4780
d 40.422663 4 7 poisson 500 ------- 0 4.0 7.0 174 4780
- 40.424443 4 7 poisson 500 ------- 0 4.0 7.0 105 4711
r 40.426443 4 7 poisson 500 ------- 0 4.0 7.0 102 4708
- 40.428443 4 7 poisson 500 ------- 0 4.0 7.0 106 4712
r 40.430443 4 7 poisson 500 ------- 0 4.0 7.0 103 4709
+ 40.431001 4 7 poisson 500 ------- 0 4.0 7.0 175 4781
- 40.432443 4 7 poisson 500 ------- 0 4.0 7.0 107 4713
+ 40.433084 4 7 poisson 500 ------- 0 4.0 7.0 176 4782
r 40.434443 4 7 poisson 500 ------- 0 4.0 7.0 104 4710
+ 40.435022 4 7 poisson 500 ------- 0 4.0 7.0 177 4783
- 40.436443 4 7 poisson 500 ------- 0 4.0 7.0 108 4714
+ 40.436844 4 7 poisson 500 ------- 0 4.0 7.0 178 4784
+ 40.437848 4 7 poisson 500 ------- 0 4.0 7.0 179 4785
d 40.437848 4 7 poisson 500 ------- 0 4.0 7.0 179 4785
r 40.438443 4 7 poisson 500 ------- 0 4.0 7.0 105 4711
- 40.440443 4 7 poisson 500 ------- 0 4.0 7.0 109 4715
+ 40.44167 4 7 poisson 500 ------- 0 4.0 7.0 180 4786
r 40.442443 4 7 poisson 500 ------- 0 4.0 7.0 106 4712
+ 40.442833 4 7 poisson 500 ------- 0 4.0 7.0 181 4787
d 40.442833 4 7 poisson 500 ------- 0 4.0 7.0 181 4787
- 40.444443 4 7 poisson 500 ------- 0 4.0 7.0 110 4716
r 40.446443 4 7 poisson 500 ------- 0 4.0 7.0 107 4713
+ 40.446906 4 7 poisson 500 ------- 0 4.0 7.0 182 4788
+ 40.447259 4 7 poisson 500 ------- 0 4.0 7.0 183 4789
d 40.447259 4 7 poisson 500 ------- 0 4.0 7.0 183 4789
- 40.448443 4 7 poisson 500 ------- 0 4.0 7.0 111 4717
r 40.450443 4 7 poisson 500 ------- 0 4.0 7.0 108 4714
+ 40.452435 4 7 poisson 500 ------- 0 4.0 7.0 184 4790
- 40.452443 4 7 poisson 500 ------- 0 4.0 7.0 112 4718
r 40.454443 4 7 poisson 500 ------- 0 4.0 7.0 109 4715
+ 40.455869 4 7 poisson 500 ------- 0 4.0 7.0 185 4791
- 40.456443 4 7 poisson 500 ------- 0 4.0 7.0 113 4719
+ 40.457464 4 7 poisson 500 ------- 0 4.0 7.0 186 4792
r 40.458443 4 7 poisson 500 ------- 0 4.0 7.0 110 4716
+ 40.458487 4 7 poisson 500 ------- 0 4.0 7.0 187 4793
d 40.458487 4 7 poisson 500 ------- 0 4.0 7.0 187 4793
- 40.460443 4 7 poisson 500 ------- 0 4.0 7.0 114 4720
+ 40.461497 4 7 poisson 500 ------- 0 4.0 7.0 188 4794
r 40.462443 4 7 poisson 500 ------- 0 4.0 7.0 111 4717
- 40.464443 4 7 poisson 500 ------- 0 4.0 7.0 115 4721
+ 40.465725 4 7 poisson 500 ------- 0 4.0 7.0 189 4795
r 40.466443 4 7 poisson 500 ------- 0 4.0 7.0 112 4718
+ 40.466598 4 7 poisson 500 ------- 0 4.0 7.0 190 4796
d 40.466598 4 7 poisson 500 ------- 0 4.0 7.0 190 4796
- 40.468443 4 7 poisson 500 ------- 0 4.0 7.0 116 4722
r 40.470443 4 7 poisson 500 ------- 0 4.0 7.0 113 4719
+ 40.471108 4 7 poisson 500 ------- 0 4.0 7.0 191 4797
+ 40.47219 4 7 poisson 500 ------- 0 4.0 7.0 192 4798
d 40.47219 4 7 poisson 500 ------- 0 4.0 7.0 192 4798
- 40.472443 4 7 poisson 500 ------- 0 4.0 7.0 118 4724
+ 40.473048 4 7 poisson 500 ------- 0 4.0 7.0 193 4799
+ 40.474345 4 7 poisson 500 ------- 0 4.0 7.0 194 4800
d 40.474345 4 7 poisson 500 ------- 0 4.0 7.0 194 4800
r 40.474443 4 7 poisson 500 ------- 0 4.0 7.0 114 4720
- 40.476443 4 7 poisson 500 ------- 0 4.0 7.0 119 4725
r 40.478443 4 7 poisson 500 ------- 0 4.0 7.0 115 4721
- 40.480443 4 7 poisson 500 ------- 0 4.0 7.0 120 4726
r 40.482443 4 7 poisson 500 ------- 0 4.0 7.0 116 4722
- 40.484443 4 7 poisson 500 ------- 0 4.0 7.0 122 4728
+ 40.485396 4 7 poisson 500 ------- 0 4.0 7.0 195 4801
+ 40.485628 4 7 poisson 500 ------- 0 4.0 7.0 196 4802
r 40.486443 4 7 poisson 500 ------- 0 4.0 7.0 118 4724
- 40.488443 4 7 poisson 500 ------- 0 4.0 7.0 125 4731
+ 40.48927 4 7 poisson 500 ------- 0 4.0 7.0 197 4803
+ 40.489277 4 7 poisson 500 ------- 0 4.0 7.0 198 4804
+ 40.490323 4 7 poisson 500 ------- 0 4.0 7.0 199 4805
d 40.490323 4 7 poisson 500 ------- 0 4.0 7.0 199 4805
r 40.490443 4 7 poisson 500 ------- 0 4.0 7.0 119 4725
- 40.492443 4 7 poisson 500 ------- 0 4.0 7.0 128 4734
r 40.494443 4 7 poisson 500 ------- 0 4.0 7.0 120 4726
+ 40.496371 4 7 poisson 500 ------- 0 4.0 7.0 200 4806
- 40.496443 4 7 poisson 500 ------- 0 4.0 7.0 129 4735
+ 40.497019 4 7 poisson 500 ------- 0 4.0 7.0 201 4807
r 40.498443 4 7 poisson 500 ------- 0 4.0 7.0 122 4728
- 40.500443 4 7 poisson 500 ------- 0 4.0 7.0 130 4736
r 40.502443 4 7 poisson 500 ------- 0 4.0 7.0 125 4731
+ 40.50331 4 7 poisson 500 ------- 0 4.0 7.0 202 4808
- 40.504443 4 7 poisson 500 ------- 0 4.0 7.0 131 4737
r 40.506443 4 7 poisson 500 ------- 0 4.0 7.0 128 4734
+ 40.507242 4 7 poisson 500 ------- 0 4.0 7.0 203 4809
- 40.508443 4 7 poisson 500 ------- 0 4.0 7.0 133 4739
+ 40.508444 4 7 poisson 500 ------- 0 4.0 7.0 204 4810
r 40.510443 4 7 poisson 500 ------- 0 4.0 7.0 129 4735
- 40.512443 4 7 poisson 500 ------- 0 4.0 7.0 134 4740
r 40.514443 4 7 poisson 500 ------- 0 4.0 7.0 130 4736
- 40.516443 4 7 poisson 500 ------- 0 4.0 7.0 136 4742
r 40.518443 4 7 poisson 500 ------- 0 4.0 7.0 131 4737
- 40.520443 4 7 poisson 500 ------- 0 4.0 7.0 138 4744
+ 40.521113 4 7 poisson 500 ------- 0 4.0 7.0 205 4811
+ 40.521345 4 7 poisson 500 ------- 0 4.0 7.0 206 4812
r 40.522443 4 7 poisson 500 ------- 0 4.0 7.0 133 4739
+ 40.523575 4 7 poisson 500 ------- 0 4.0 7.0 207 4813
- 40.524443 4 7 poisson 500 ------- 0 4.0 7.0 140 4746
+ 40.525507 4 7 poisson 500 ------- 0 4.0 7.0 208 4814
r 40.526443 4 7 poisson 500 ------- 0 4.0 7.0 134 4740
- 40.528443 4 7 poisson 500 ------- 0 4.0 7.0 141 4747
+ 40.529492 4 7 poisson 500 ------- 0 4.0 7.0 209 4815
r 40.530443 4 7 poisson 500 ------- 0 4.0 7.0 136 4742
- 40.532443 4 7 poisson 500 ------- 0 4.0 7.0 142 4748
+ 40.533221 4 7 poisson 500 ------- 0 4.0 7.0 210 4816
r 40.534443 4 7 poisson 500 ------- 0 4.0 7.0 138 4744
+ 40.535437 4 7 poisson 500 ------- 0 4.0 7.0 211 4817
d 40.535437 4 7 poisson 500 ------- 0 4.0 7.0 211 4817
- 40.536443 4 7 poisson 500 ------- 0 4.0 7.0 143 4749
r 40.538443 4 7 poisson 500 ------- 0 4.0 7.0 140 4746
+ 40.539873 4 7 poisson 500 ------- 0 4.0 7.0 212 4818
- 40.540443 4 7 poisson 500 ------- 0 4.0 7.0 145 4751
+ 40.541239 4 7 poisson 500 ------- 0 4.0 7.0 213 4819
r 40.542443 4 7 poisson 500 ------- 0 4.0 7.0 141 4747
+ 40.542546 4 7 poisson 500 ------- 0 4.0 7.0 214 4820
d 40.542546 4 7 poisson 500 ------- 0 4.0 7.0 214 4820
- 40.544443 4 7 poisson 500 ------- 0 4.0 7.0 146 4752
r 40.546443 4 7 poisson 500 ------- 0 4.0 7.0 142 4748
+ 40.548091 4 7 poisson 500 ------- 0 4.0 7.0 215 4821
- 40.548443 4 7 poisson 500 ------- 0 4.0 7.0 149 4755
r 40.550443 4 7 poisson 500 ------- 0 4.0 7.0 143 4749
+ 40.551627 4 7 poisson 500 ------- 0 4.0 7.0 216 4822
- 40.552443 4 7 poisson 500 ------- 0 4.0 7.0 150 4756
+ 40.554036 4 7 poisson 500 ------- 0 4.0 7.0 217 4823
r 40.554443 4 7 poisson 500 ------- 0 4.0 7.0 145 4751
- 40.556443 4 7 poisson 500 ------- 0 4.0 7.0 151 4757
r 40.558443 4 7 poisson 500 ------- 0 4.0 7.0 146 4752
- 40.560443 4 7 poisson 500 ------- 0 4.0 7.0 153 4759
+ 40.561572 4 7 poisson 500 ------- 0 4.0 7.0 218 4824
+ 40.561784 4 7 poisson 500 ------- 0 4.0 7.0 219 4825
r 40.562443 4 7 poisson 500 ------- 0 4.0 7.0 149 4755
+ 40.563555 4 7 poisson 500 ------- 0 4.0 7.0 220 4826
d 40.563555 4 7 poisson 500 ------- 0 4.0 7.0 220 4826
- 40.564443 4 7 poisson 500 ------- 0 4.0 7.0 154 4760
+ 40.564988 4 7 poisson 500 ------- 0 4.0 7.0 221 4827
r 40.566443 4 7 poisson 500 ------- 0 4.0 7.0 150 4756
+ 40.567754 4 7 poisson 500 ------- 0 4.0 7.0 222 4828
d 40.567754 4 7 poisson 500 ------- 0 4.0 7.0 222 4828
- 40.568443 4 7 poisson 500 ------- 0 4.0 7.0 155 4761
r 40.570443 4 7 poisson 500 ------- 0 4.0 7.0 151 4757
+ 40.571043 4 7 poisson 500 ------- 0 4.0 7.0 223 4829
- 40.572443 4 7 poisson 500 ------- 0 4.0 7.0 156 4762
+ 40.572911 4 7 poisson 500 ------- 0 4.0 7.0 224 4830
r 40.574443 4 7 poisson 500 ------- 0 4.0 7.0 153 4759
- 40.576443 4 7 poisson 500 ------- 0 4.0 7.0 157 4763
+ 40.576488 4 7 poisson 500 ------- 0 4.0 7.0 225 4831
+ 40.577082 4 7 poisson 500 ------- 0 4.0 7.0 226 4832
d 40.577082 4 7 poisson 500 ------- 0 4.0 7.0 226 4832
+ 40.578143 4 7 poisson 500 ------- 0 4.0 7.0 227 4833
d 40.578143 4 7 poisson 500 ------- 0 4.0 7.0 227 4833
r 40.578443 4 7 poisson 500 ------- 0 4.0 7.0 154 4760
+ 40.578495 4 7 poisson 500 ------- 0 4.0 7.0 228 4834
d 40.578495 4 7 poisson 500 ------- 0 4.0 7.0 228 4834
+ 40.579453 4 7 poisson 500 ------- 0 4.0 7.0 229 4835
d 40.579453 4 7 poisson 500 ------- 0 4.0 7.0 229 4835
- 40.580443 4 7 poisson 500 ------- 0 4.0 7.0 158 4764