+ 10 1 7 poisson 500 ------- 0 1.0 7.0 0 216
- 10 1 7 poisson 500 ------- 0 1.0 7.0 0 216
+ 10.007078 1 7 poisson 500 ------- 0 1.0 7.0 1 217
- 10.007078 1 7 poisson 500 ------- 0 1.0 7.0 1 217
r 10.014 1 7 poisson 500 ------- 0 1.0 7.0 0 216
r 10.021078 1 7 poisson 500 ------- 0 1.0 7.0 1 217
+ 10.022089 1 7 poisson 500 ------- 0 1.0 7.0 2 218
- 10.022089 1 7 poisson 500 ------- 0 1.0 7.0 2 218
r 10.036089 1 7 poisson 500 ------- 0 1.0 7.0 2 218
+ 10.042663 1 7 poisson 500 ------- 0 1.0 7.0 3 219
- 10.042663 1 7 poisson 500 ------- 0 1.0 7.0 3 219
r 10.056663 1 7 poisson 500 ------- 0 1.0 7.0 3 219
+ 10.059221 1 7 poisson 500 ------- 0 1.0 7.0 4 220
- 10.059221 1 7 poisson 500 ------- 0 1.0 7.0 4 220
+ 10.06007 1 7 poisson 500 ------- 0 1.0 7.0 5 221
- 10.063221 1 7 poisson 500 ------- 0 1.0 7.0 5 221
r 10.073221 1 7 poisson 500 ------- 0 1.0 7.0 4 220
r 10.077221 1 7 poisson 500 ------- 0 1.0 7.0 5 221
+ 10.113467 1 7 poisson 500 ------- 0 1.0 7.0 6 222
- 10.113467 1 7 poisson 500 ------- 0 1.0 7.0 6 222
+ 10.12042 1 7 poisson 500 ------- 0 1.0 7.0 7 223
- 10.12042 1 7 poisson 500 ------- 0 1.0 7.0 7 223
r 10.127467 1 7 poisson 500 ------- 0 1.0 7.0 6 222
r 10.13442 1 7 poisson 500 ------- 0 1.0 7.0 7 223
+ 10.150806 1 7 poisson 500 ------- 0 1.0 7.0 8 224
- 10.150806 1 7 poisson 500 ------- 0 1.0 7.0 8 224
+ 10.163771 1 7 poisson 500 ------- 0 1.0 7.0 9 225
- 10.163771 1 7 poisson 500 ------- 0 1.0 7.0 9 225
r 10.164806 1 7 poisson 500 ------- 0 1.0 7.0 8 224
+ 10.171122 1 7 poisson 500 ------- 0 1.0 7.0 10 226
- 10.171122 1 7 poisson 500 ------- 0 1.0 7.0 10 226
r 10.177771 1 7 poisson 500 ------- 0 1.0 7.0 9 225
r 10.185122 1 7 poisson 500 ------- 0 1.0 7.0 10 226
+ 10.203715 1 7 poisson 500 ------- 0 1.0 7.0 11 227
- 10.203715 1 7 poisson 500 ------- 0 1.0 7.0 11 227
r 10.217715 1 7 poisson 500 ------- 0 1.0 7.0 11 227
+ 10.250019 1 7 poisson 500 ------- 0 1.0 7.0 12 228
- 10.250019 1 7 poisson 500 ------- 0 1.0 7.0 12 228
+ 10.260593 1 7 poisson 500 ------- 0 1.0 7.0 13 229
- 10.260593 1 7 poisson 500 ------- 0 1.0 7.0 13 229
r 10.264019 1 7 poisson 500 ------- 0 1.0 7.0 12 228
r 10.274593 1 7 poisson 500 ------- 0 1.0 7.0 13 229
+ 10.279572 1 7 poisson 500 ------- 0 1.0 7.0 14 230
- 10.279572 1 7 poisson 500 ------- 0 1.0 7.0 14 230
r 10.293572 1 7 poisson 500 ------- 0 1.0 7.0 14 230
+ 10.297278 1 7 poisson 500 ------- 0 1.0 7.0 15 231
- 10.297278 1 7 poisson 500 ------- 0 1.0 7.0 15 231
r 10.311278 1 7 poisson 500 ------- 0 1.0 7.0 15 231
+ 10.312962 1 7 poisson 500 ------- 0 1.0 7.0 16 232
- 10.312962 1 7 poisson 500 ------- 0 1.0 7.0 16 232
r 10.326962 1 7 poisson 500 ------- 0 1.0 7.0 16 232
+ 10.328705 1 7 poisson 500 ------- 0 1.0 7.0 17 233
- 10.328705 1 7 poisson 500 ------- 0 1.0 7.0 17 233
+ 10.332743 1 7 poisson 500 ------- 0 1.0 7.0 18 234
- 10.332743 1 7 poisson 500 ------- 0 1.0 7.0 18 234
r 10.342705 1 7 poisson 500 ------- 0 1.0 7.0 17 233
+ 10.346325 1 7 poisson 500 ------- 0 1.0 7.0 19 235
- 10.346325 1 7 poisson 500 ------- 0 1.0 7.0 19 235
r 10.346743 1 7 poisson 500 ------- 0 1.0 7.0 18 234
+ 10.356079 1 7 poisson 500 ------- 0 1.0 7.0 20 236
- 10.356079 1 7 poisson 500 ------- 0 1.0 7.0 20 236
+ 10.358843 1 7 poisson 500 ------- 0 1.0 7.0 21 237
- 10.360079 1 7 poisson 500 ------- 0 1.0 7.0 21 237
r 10.360325 1 7 poisson 500 ------- 0 1.0 7.0 19 235
+ 10.364525 1 7 poisson 500 ------- 0 1.0 7.0 22 238
- 10.364525 1 7 poisson 500 ------- 0 1.0 7.0 22 238
r 10.370079 1 7 poisson 500 ------- 0 1.0 7.0 20 236
r 10.374079 1 7 poisson 500 ------- 0 1.0 7.0 21 237
+ 10.376905 1 7 poisson 500 ------- 0 1.0 7.0 23 239
- 10.376905 1 7 poisson 500 ------- 0 1.0 7.0 23 239
r 10.378525 1 7 poisson 500 ------- 0 1.0 7.0 22 238
+ 10.387365 1 7 poisson 500 ------- 0 1.0 7.0 24 240
- 10.387365 1 7 poisson 500 ------- 0 1.0 7.0 24 240
+ 10.389854 1 7 poisson 500 ------- 0 1.0 7.0 25 241
r 10.390905 1 7 poisson 500 ------- 0 1.0 7.0 23 239
- 10.391365 1 7 poisson 500 ------- 0 1.0 7.0 25 241
+ 10.398552 1 7 poisson 500 ------- 0 1.0 7.0 26 242
- 10.398552 1 7 poisson 500 ------- 0 1.0 7.0 26 242
+ 10.39982 1 7 poisson 500 ------- 0 1.0 7.0 27 243
r 10.401365 1 7 poisson 500 ------- 0 1.0 7.0 24 240
- 10.402552 1 7 poisson 500 ------- 0 1.0 7.0 27 243
r 10.405365 1 7 poisson 500 ------- 0 1.0 7.0 25 241
r 10.412552 1 7 poisson 500 ------- 0 1.0 7.0 26 242
r 10.416552 1 7 poisson 500 ------- 0 1.0 7.0 27 243
+ 10.420851 1 7 poisson 500 ------- 0 1.0 7.0 28 244
- 10.420851 1 7 poisson 500 ------- 0 1.0 7.0 28 244
r 10.434851 1 7 poisson 500 ------- 0 1.0 7.0 28 244
+ 10.464557 1 7 poisson 500 ------- 0 1.0 7.0 29 245
- 10.464557 1 7 poisson 500 ------- 0 1.0 7.0 29 245
r 10.478557 1 7 poisson 500 ------- 0 1.0 7.0 29 245
+ 10.483152 1 7 poisson 500 ------- 0 1.0 7.0 30 246
- 10.483152 1 7 poisson 500 ------- 0 1.0 7.0 30 246
+ 10.485891 1 7 poisson 500 ------- 0 1.0 7.0 31 247
- 10.487152 1 7 poisson 500 ------- 0 1.0 7.0 31 247
r 10.497152 1 7 poisson 500 ------- 0 1.0 7.0 30 246
+ 10.497869 1 7 poisson 500 ------- 0 1.0 7.0 32 248
- 10.497869 1 7 poisson 500 ------- 0 1.0 7.0 32 248
+ 10.498073 1 7 poisson 500 ------- 0 1.0 7.0 33 249
r 10.501152 1 7 poisson 500 ------- 0 1.0 7.0 31 247
- 10.501869 1 7 poisson 500 ------- 0 1.0 7.0 33 249
+ 10.509069 1 7 poisson 500 ------- 0 1.0 7.0 34 250
- 10.509069 1 7 poisson 500 ------- 0 1.0 7.0 34 250
r 10.511869 1 7 poisson 500 ------- 0 1.0 7.0 32 248
r 10.515869 1 7 poisson 500 ------- 0 1.0 7.0 33 249
r 10.523069 1 7 poisson 500 ------- 0 1.0 7.0 34 250
+ 10.531328 1 7 poisson 500 ------- 0 1.0 7.0 35 251
- 10.531328 1 7 poisson 500 ------- 0 1.0 7.0 35 251
+ 10.533728 1 7 poisson 500 ------- 0 1.0 7.0 36 252
+ 10.535139 1 7 poisson 500 ------- 0 1.0 7.0 37 253
- 10.535328 1 7 poisson 500 ------- 0 1.0 7.0 36 252
+ 10.536776 1 7 poisson 500 ------- 0 1.0 7.0 38 254
- 10.539328 1 7 poisson 500 ------- 0 1.0 7.0 37 253
- 10.543328 1 7 poisson 500 ------- 0 1.0 7.0 38 254
r 10.545328 1 7 poisson 500 ------- 0 1.0 7.0 35 251
r 10.549328 1 7 poisson 500 ------- 0 1.0 7.0 36 252
r 10.553328 1 7 poisson 500 ------- 0 1.0 7.0 37 253
+ 10.554563 1 7 poisson 500 ------- 0 1.0 7.0 39 255
- 10.554563 1 7 poisson 500 ------- 0 1.0 7.0 39 255
r 10.557328 1 7 poisson 500 ------- 0 1.0 7.0 38 254
+ 10.565306 1 7 poisson 500 ------- 0 1.0 7.0 40 256
- 10.565306 1 7 poisson 500 ------- 0 1.0 7.0 40 256
r 10.568563 1 7 poisson 500 ------- 0 1.0 7.0 39 255
+ 10.569515 1 7 poisson 500 ------- 0 1.0 7.0 41 257
- 10.569515 1 7 poisson 500 ------- 0 1.0 7.0 41 257
r 10.579306 1 7 poisson 500 ------- 0 1.0 7.0 40 256
+ 10.582364 1 7 poisson 500 ------- 0 1.0 7.0 42 258
- 10.582364 1 7 poisson 500 ------- 0 1.0 7.0 42 258
r 10.583515 1 7 poisson 500 ------- 0 1.0 7.0 41 257
+ 10.586502 1 7 poisson 500 ------- 0 1.0 7.0 43 259
- 10.586502 1 7 poisson 500 ------- 0 1.0 7.0 43 259
r 10.596364 1 7 poisson 500 ------- 0 1.0 7.0 42 258
r 10.600502 1 7 poisson 500 ------- 0 1.0 7.0 43 259
+ 10.628866 1 7 poisson 500 ------- 0 1.0 7.0 44 260
- 10.628866 1 7 poisson 500 ------- 0 1.0 7.0 44 260
r 10.642866 1 7 poisson 500 ------- 0 1.0 7.0 44 260
+ 10.649899 1 7 poisson 500 ------- 0 1.0 7.0 45 261
- 10.649899 1 7 poisson 500 ------- 0 1.0 7.0 45 261
r 10.663899 1 7 poisson 500 ------- 0 1.0 7.0 45 261
+ 10.667127 1 7 poisson 500 ------- 0 1.0 7.0 46 262
- 10.667127 1 7 poisson 500 ------- 0 1.0 7.0 46 262
+ 10.680035 1 7 poisson 500 ------- 0 1.0 7.0 47 263
- 10.680035 1 7 poisson 500 ------- 0 1.0 7.0 47 263
r 10.681127 1 7 poisson 500 ------- 0 1.0 7.0 46 262
+ 10.688538 1 7 poisson 500 ------- 0 1.0 7.0 48 264
- 10.688538 1 7 poisson 500 ------- 0 1.0 7.0 48 264
r 10.694035 1 7 poisson 500 ------- 0 1.0 7.0 47 263
+ 10.695377 1 7 poisson 500 ------- 0 1.0 7.0 49 265
- 10.695377 1 7 poisson 500 ------- 0 1.0 7.0 49 265
r 10.702538 1 7 poisson 500 ------- 0 1.0 7.0 48 264
+ 10.704238 1 7 poisson 500 ------- 0 1.0 7.0 50 266
- 10.704238 1 7 poisson 500 ------- 0 1.0 7.0 50 266
r 10.709377 1 7 poisson 500 ------- 0 1.0 7.0 49 265
r 10.718238 1 7 poisson 500 ------- 0 1.0 7.0 50 266
+ 10.726337 1 7 poisson 500 ------- 0 1.0 7.0 51 267
- 10.726337 1 7 poisson 500 ------- 0 1.0 7.0 51 267
r 10.740337 1 7 poisson 500 ------- 0 1.0 7.0 51 267
+ 10.780095 1 7 poisson 500 ------- 0 1.0 7.0 52 268
- 10.780095 1 7 poisson 500 ------- 0 1.0 7.0 52 268
r 10.794095 1 7 poisson 500 ------- 0 1.0 7.0 52 268
+ 10.823682 1 7 poisson 500 ------- 0 1.0 7.0 53 269
- 10.823682 1 7 poisson 500 ------- 0 1.0 7.0 53 269
+ 10.835013 1 7 poisson 500 ------- 0 1.0 7.0 54 270
- 10.835013 1 7 poisson 500 ------- 0 1.0 7.0 54 270
r 10.837682 1 7 poisson 500 ------- 0 1.0 7.0 53 269
r 10.849013 1 7 poisson 500 ------- 0 1.0 7.0 54 270
+ 10.875111 1 7 poisson 500 ------- 0 1.0 7.0 55 271
- 10.875111 1 7 poisson 500 ------- 0 1.0 7.0 55 271
+ 10.87798 1 7 poisson 500 ------- 0 1.0 7.0 56 272
- 10.879111 1 7 poisson 500 ------- 0 1.0 7.0 56 272
r 10.889111 1 7 poisson 500 ------- 0 1.0 7.0 55 271
+ 10.889415 1 7 poisson 500 ------- 0 1.0 7.0 57 273
- 10.889415 1 7 poisson 500 ------- 0 1.0 7.0 57 273
r 10.893111 1 7 poisson 500 ------- 0 1.0 7.0 56 272
+ 10.901093 1 7 poisson 500 ------- 0 1.0 7.0 58 274
- 10.901093 1 7 poisson 500 ------- 0 1.0 7.0 58 274
r 10.903415 1 7 poisson 500 ------- 0 1.0 7.0 57 273
r 10.915093 1 7 poisson 500 ------- 0 1.0 7.0 58 274
+ 10.915803 1 7 poisson 500 ------- 0 1.0 7.0 59 275
- 10.915803 1 7 poisson 500 ------- 0 1.0 7.0 59 275
+ 10.923962 1 7 poisson 500 ------- 0 1.0 7.0 60 276
- 10.923962 1 7 poisson 500 ------- 0 1.0 7.0 60 276
r 10.929803 1 7 poisson 500 ------- 0 1.0 7.0 59 275
+ 10.930043 1 7 poisson 500 ------- 0 1.0 7.0 61 277
- 10.930043 1 7 poisson 500 ------- 0 1.0 7.0 61 277
+ 10.932609 1 7 poisson 500 ------- 0 1.0 7.0 62 278
- 10.934043 1 7 poisson 500 ------- 0 1.0 7.0 62 278
r 10.937962 1 7 poisson 500 ------- 0 1.0 7.0 60 276
r 10.944043 1 7 poisson 500 ------- 0 1.0 7.0 61 277
+ 10.945909 1 7 poisson 500 ------- 0 1.0 7.0 63 279
- 10.945909 1 7 poisson 500 ------- 0 1.0 7.0 63 279
r 10.948043 1 7 poisson 500 ------- 0 1.0 7.0 62 278
r 10.959909 1 7 poisson 500 ------- 0 1.0 7.0 63 279
+ 10.964988 1 7 poisson 500 ------- 0 1.0 7.0 64 280
- 10.964988 1 7 poisson 500 ------- 0 1.0 7.0 64 280
r 10.978988 1 7 poisson 500 ------- 0 1.0 7.0 64 280
+ 10.997752 1 7 poisson 500 ------- 0 1.0 7.0 65 281
- 10.997752 1 7 poisson 500 ------- 0 1.0 7.0 65 281
r 11.011752 1 7 poisson 500 ------- 0 1.0 7.0 65 281
+ 11.015921 1 7 poisson 500 ------- 0 1.0 7.0 66 282
- 11.015921 1 7 poisson 500 ------- 0 1.0 7.0 66 282
+ 11.02461 1 7 poisson 500 ------- 0 1.0 7.0 67 283
- 11.02461 1 7 poisson 500 ------- 0 1.0 7.0 67 283
r 11.029921 1 7 poisson 500 ------- 0 1.0 7.0 66 282
+ 11.036718 1 7 poisson 500 ------- 0 1.0 7.0 68 284
- 11.036718 1 7 poisson 500 ------- 0 1.0 7.0 68 284
r 11.03861 1 7 poisson 500 ------- 0 1.0 7.0 67 283
r 11.050718 1 7 poisson 500 ------- 0 1.0 7.0 68 284
+ 11.05841 1 7 poisson 500 ------- 0 1.0 7.0 69 285
- 11.05841 1 7 poisson 500 ------- 0 1.0 7.0 69 285
r 11.07241 1 7 poisson 500 ------- 0 1.0 7.0 69 285
+ 11.074221 1 7 poisson 500 ------- 0 1.0 7.0 70 286
- 11.074221 1 7 poisson 500 ------- 0 1.0 7.0 70 286
r 11.088221 1 7 poisson 500 ------- 0 1.0 7.0 70 286
+ 11.111367 1 7 poisson 500 ------- 0 1.0 7.0 71 287
- 11.111367 1 7 poisson 500 ------- 0 1.0 7.0 71 287
r 11.125367 1 7 poisson 500 ------- 0 1.0 7.0 71 287
+ 11.150799 1 7 poisson 500 ------- 0 1.0 7.0 72 288
- 11.150799 1 7 poisson 500 ------- 0 1.0 7.0 72 288
+ 11.162686 1 7 poisson 500 ------- 0 1.0 7.0 73 289
- 11.162686 1 7 poisson 500 ------- 0 1.0 7.0 73 289
r 11.164799 1 7 poisson 500 ------- 0 1.0 7.0 72 288
+ 11.174273 1 7 poisson 500 ------- 0 1.0 7.0 74 290
- 11.174273 1 7 poisson 500 ------- 0 1.0 7.0 74 290
r 11.176686 1 7 poisson 500 ------- 0 1.0 7.0 73 289
r 11.188273 1 7 poisson 500 ------- 0 1.0 7.0 74 290
+ 11.215401 1 7 poisson 500 ------- 0 1.0 7.0 75 291
- 11.215401 1 7 poisson 500 ------- 0 1.0 7.0 75 291
+ 11.228432 1 7 poisson 500 ------- 0 1.0 7.0 76 292
- 11.228432 1 7 poisson 500 ------- 0 1.0 7.0 76 292
r 11.229401 1 7 poisson 500 ------- 0 1.0 7.0 75 291
r 11.242432 1 7 poisson 500 ------- 0 1.0 7.0 76 292
+ 11.277202 1 7 poisson 500 ------- 0 1.0 7.0 77 293
- 11.277202 1 7 poisson 500 ------- 0 1.0 7.0 77 293
+ 11.286048 1 7 poisson 500 ------- 0 1.0 7.0 78 294
- 11.286048 1 7 poisson 500 ------- 0 1.0 7.0 78 294
r 11.291202 1 7 poisson 500 ------- 0 1.0 7.0 77 293
r 11.300048 1 7 poisson 500 ------- 0 1.0 7.0 78 294
+ 11.327406 1 7 poisson 500 ------- 0 1.0 7.0 79 295
- 11.327406 1 7 poisson 500 ------- 0 1.0 7.0 79 295
+ 11.328694 1 7 poisson 500 ------- 0 1.0 7.0 80 296
- 11.331406 1 7 poisson 500 ------- 0 1.0 7.0 80 296
r 11.341406 1 7 poisson 500 ------- 0 1.0 7.0 79 295
r 11.345406 1 7 poisson 500 ------- 0 1.0 7.0 80 296
+ 11.347765 1 7 poisson 500 ------- 0 1.0 7.0 81 297
- 11.347765 1 7 poisson 500 ------- 0 1.0 7.0 81 297
r 11.361765 1 7 poisson 500 ------- 0 1.0 7.0 81 297
+ 11.362055 1 7 poisson 500 ------- 0 1.0 7.0 82 298
- 11.362055 1 7 poisson 500 ------- 0 1.0 7.0 82 298
+ 11.367609 1 7 poisson 500 ------- 0 1.0 7.0 83 299
- 11.367609 1 7 poisson 500 ------- 0 1.0 7.0 83 299
+ 11.37224 1 7 poisson 500 ------- 0 1.0 7.0 84 300
- 11.37224 1 7 poisson 500 ------- 0 1.0 7.0 84 300
r 11.376055 1 7 poisson 500 ------- 0 1.0 7.0 82 298
r 11.381609 1 7 poisson 500 ------- 0 1.0 7.0 83 299
r 11.38624 1 7 poisson 500 ------- 0 1.0 7.0 84 300
+ 11.397705 1 7 poisson 500 ------- 0 1.0 7.0 85 301
- 11.397705 1 7 poisson 500 ------- 0 1.0 7.0 85 301
+ 11.397928 1 7 poisson 500 ------- 0 1.0 7.0 86 302
- 11.401705 1 7 poisson 500 ------- 0 1.0 7.0 86 302
r 11.411705 1 7 poisson 500 ------- 0 1.0 7.0 85 301
+ 11.414178 1 7 poisson 500 ------- 0 1.0 7.0 87 303
- 11.414178 1 7 poisson 500 ------- 0 1.0 7.0 87 303
r 11.415705 1 7 poisson 500 ------- 0 1.0 7.0 86 302
+ 11.417805 1 7 poisson 500 ------- 0 1.0 7.0 88 304
- 11.418178 1 7 poisson 500 ------- 0 1.0 7.0 88 304
+ 11.425724 1 7 poisson 500 ------- 0 1.0 7.0 89 305
- 11.425724 1 7 poisson 500 ------- 0 1.0 7.0 89 305
r 11.428178 1 7 poisson 500 ------- 0 1.0 7.0 87 303
r 11.432178 1 7 poisson 500 ------- 0 1.0 7.0 88 304
+ 11.436865 1 7 poisson 500 ------- 0 1.0 7.0 90 306
- 11.436865 1 7 poisson 500 ------- 0 1.0 7.0 90 306
r 11.439724 1 7 poisson 500 ------- 0 1.0 7.0 89 305
r 11.450865 1 7 poisson 500 ------- 0 1.0 7.0 90 306
+ 11.469251 1 7 poisson 500 ------- 0 1.0 7.0 91 307
- 11.469251 1 7 poisson 500 ------- 0 1.0 7.0 91 307
+ 11.470877 1 7 poisson 500 ------- 0 1.0 7.0 92 308
+ 11.472551 1 7 poisson 500 ------- 0 1.0 7.0 93 309
- 11.473251 1 7 poisson 500 ------- 0 1.0 7.0 92 308
+ 11.474838 1 7 poisson 500 ------- 0 1.0 7.0 94 310
- 11.477251 1 7 poisson 500 ------- 0 1.0 7.0 93 309
- 11.481251 1 7 poisson 500 ------- 0 1.0 7.0 94 310
r 11.483251 1 7 poisson 500 ------- 0 1.0 7.0 91 307
+ 11.487245 1 7 poisson 500 ------- 0 1.0 7.0 95 311
- 11.487245 1 7 poisson 500 ------- 0 1.0 7.0 95 311
r 11.487251 1 7 poisson 500 ------- 0 1.0 7.0 92 308
r 11.491251 1 7 poisson 500 ------- 0 1.0 7.0 93 309
r 11.495251 1 7 poisson 500 ------- 0 1.0 7.0 94 310
r 11.501245 1 7 poisson 500 ------- 0 1.0 7.0 95 311
+ 11.526605 1 7 poisson 500 ------- 0 1.0 7.0 96 312
- 11.526605 1 7 poisson 500 ------- 0 1.0 7.0 96 312
r 11.540605 1 7 poisson 500 ------- 0 1.0 7.0 96 312
+ 11.570735 1 7 poisson 500 ------- 0 1.0 7.0 97 313
- 11.570735 1 7 poisson 500 ------- 0 1.0 7.0 97 313
+ 11.579701 1 7 poisson 500 ------- 0 1.0 7.0 98 314
- 11.579701 1 7 poisson 500 ------- 0 1.0 7.0 98 314
r 11.584735 1 7 poisson 500 ------- 0 1.0 7.0 97 313
+ 11.585169 1 7 poisson 500 ------- 0 1.0 7.0 99 315
- 11.585169 1 7 poisson 500 ------- 0 1.0 7.0 99 315
r 11.593701 1 7 poisson 500 ------- 0 1.0 7.0 98 314
r 11.599169 1 7 poisson 500 ------- 0 1.0 7.0 99 315
+ 11.605476 1 7 poisson 500 ------- 0 1.0 7.0 100 316
- 11.605476 1 7 poisson 500 ------- 0 1.0 7.0 100 316
+ 11.613781 1 7 poisson 500 ------- 0 1.0 7.0 101 317
- 11.613781 1 7 poisson 500 ------- 0 1.0 7.0 101 317
+ 11.617283 1 7 poisson 500 ------- 0 1.0 7.0 102 318
- 11.617781 1 7 poisson 500 ------- 0 1.0 7.0 102 318
r 11.619476 1 7 poisson 500 ------- 0 1.0 7.0 100 316
+ 11.627042 1 7 poisson 500 ------- 0 1.0 7.0 103 319
- 11.627042 1 7 poisson 500 ------- 0 1.0 7.0 103 319
r 11.627781 1 7 poisson 500 ------- 0 1.0 7.0 101 317
+ 11.630221 1 7 poisson 500 ------- 0 1.0 7.0 104 320
- 11.631042 1 7 poisson 500 ------- 0 1.0 7.0 104 320
r 11.631781 1 7 poisson 500 ------- 0 1.0 7.0 102 318
+ 11.636145 1 7 poisson 500 ------- 0 1.0 7.0 105 321
- 11.636145 1 7 poisson 500 ------- 0 1.0 7.0 105 321
r 11.641042 1 7 poisson 500 ------- 0 1.0 7.0 103 319
r 11.645042 1 7 poisson 500 ------- 0 1.0 7.0 104 320
+ 11.647134 1 7 poisson 500 ------- 0 1.0 7.0 106 322
- 11.647134 1 7 poisson 500 ------- 0 1.0 7.0 106 322
r 11.650145 1 7 poisson 500 ------- 0 1.0 7.0 105 321
+ 11.653801 1 7 poisson 500 ------- 0 1.0 7.0 107 323
- 11.653801 1 7 poisson 500 ------- 0 1.0 7.0 107 323
r 11.661134 1 7 poisson 500 ------- 0 1.0 7.0 106 322
+ 11.663728 1 7 poisson 500 ------- 0 1.0 7.0 108 324
- 11.663728 1 7 poisson 500 ------- 0 1.0 7.0 108 324
r 11.667801 1 7 poisson 500 ------- 0 1.0 7.0 107 323
r 11.677728 1 7 poisson 500 ------- 0 1.0 7.0 108 324
+ 11.693586 1 7 poisson 500 ------- 0 1.0 7.0 109 325
- 11.693586 1 7 poisson 500 ------- 0 1.0 7.0 109 325
r 11.707586 1 7 poisson 500 ------- 0 1.0 7.0 109 325
+ 11.714116 1 7 poisson 500 ------- 0 1.0 7.0 110 326
- 11.714116 1 7 poisson 500 ------- 0 1.0 7.0 110 326
r 11.728116 1 7 poisson 500 ------- 0 1.0 7.0 110 326
+ 11.744235 1 7 poisson 500 ------- 0 1.0 7.0 111 327
- 11.744235 1 7 poisson 500 ------- 0 1.0 7.0 111 327
r 11.758235 1 7 poisson 500 ------- 0 1.0 7.0 111 327
+ 11.764998 1 7 poisson 500 ------- 0 1.0 7.0 112 328
- 11.764998 1 7 poisson 500 ------- 0 1.0 7.0 112 328
r 11.778998 1 7 poisson 500 ------- 0 1.0 7.0 112 328
+ 11.797677 1 7 poisson 500 ------- 0 1.0 7.0 113 329
- 11.797677 1 7 poisson 500 ------- 0 1.0 7.0 113 329
+ 11.79837 1 7 poisson 500 ------- 0 1.0 7.0 114 330
+ 11.801207 1 7 poisson 500 ------- 0 1.0 7.0 115 331
- 11.801677 1 7 poisson 500 ------- 0 1.0 7.0 114 330
+ 11.804341 1 7 poisson 500 ------- 0 1.0 7.0 116 332
- 11.805677 1 7 poisson 500 ------- 0 1.0 7.0 115 331
- 11.809677 1 7 poisson 500 ------- 0 1.0 7.0 116 332
+ 11.810245 1 7 poisson 500 ------- 0 1.0 7.0 117 333
r 11.811677 1 7 poisson 500 ------- 0 1.0 7.0 113 329
- 11.813677 1 7 poisson 500 ------- 0 1.0 7.0 117 333
r 11.815677 1 7 poisson 500 ------- 0 1.0 7.0 114 330
r 11.819677 1 7 poisson 500 ------- 0 1.0 7.0 115 331
+ 11.819926 1 7 poisson 500 ------- 0 1.0 7.0 118 334
- 11.819926 1 7 poisson 500 ------- 0 1.0 7.0 118 334
r 11.823677 1 7 poisson 500 ------- 0 1.0 7.0 116 332
r 11.827677 1 7 poisson 500 ------- 0 1.0 7.0 117 333
r 11.833926 1 7 poisson 500 ------- 0 1.0 7.0 118 334
+ 11.853257 1 7 poisson 500 ------- 0 1.0 7.0 119 335
- 11.853257 1 7 poisson 500 ------- 0 1.0 7.0 119 335
+ 11.865494 1 7 poisson 500 ------- 0 1.0 7.0 120 336
- 11.865494 1 7 poisson 500 ------- 0 1.0 7.0 120 336
r 11.867257 1 7 poisson 500 ------- 0 1.0 7.0 119 335
r 11.879494 1 7 poisson 500 ------- 0 1.0 7.0 120 336
+ 11.887316 1 7 poisson 500 ------- 0 1.0 7.0 121 337
- 11.887316 1 7 poisson 500 ------- 0 1.0 7.0 121 337
+ 11.901122 1 7 poisson 500 ------- 0 1.0 7.0 122 338
- 11.901122 1 7 poisson 500 ------- 0 1.0 7.0 122 338
r 11.901316 1 7 poisson 500 ------- 0 1.0 7.0 121 337
r 11.915122 1 7 poisson 500 ------- 0 1.0 7.0 122 338
+ 11.922155 1 7 poisson 500 ------- 0 1.0 7.0 123 339
- 11.922155 1 7 poisson 500 ------- 0 1.0 7.0 123 339
r 11.936155 1 7 poisson 500 ------- 0 1.0 7.0 123 339
+ 11.971723 1 7 poisson 500 ------- 0 1.0 7.0 124 340
- 11.971723 1 7 poisson 500 ------- 0 1.0 7.0 124 340
+ 11.972402 1 7 poisson 500 ------- 0 1.0 7.0 125 341
- 11.975723 1 7 poisson 500 ------- 0 1.0 7.0 125 341
r 11.985723 1 7 poisson 500 ------- 0 1.0 7.0 124 340
+ 11.988237 1 7 poisson 500 ------- 0 1.0 7.0 126 342
- 11.988237 1 7 poisson 500 ------- 0 1.0 7.0 126 342
r 11.989723 1 7 poisson 500 ------- 0 1.0 7.0 125 341
r 12.002237 1 7 poisson 500 ------- 0 1.0 7.0 126 342
+ 12.013566 1 7 poisson 500 ------- 0 1.0 7.0 127 343
- 12.013566 1 7 poisson 500 ------- 0 1.0 7.0 127 343
+ 12.019496 1 7 poisson 500 ------- 0 1.0 7.0 128 344
- 12.019496 1 7 poisson 500 ------- 0 1.0 7.0 128 344
r 12.027566 1 7 poisson 500 ------- 0 1.0 7.0 127 343
+ 12.027812 1 7 poisson 500 ------- 0 1.0 7.0 129 345
- 12.027812 1 7 poisson 500 ------- 0 1.0 7.0 129 345
+ 12.033074 1 7 poisson 500 ------- 0 1.0 7.0 130 346
- 12.033074 1 7 poisson 500 ------- 0 1.0 7.0 130 346
r 12.033496 1 7 poisson 500 ------- 0 1.0 7.0 128 344
r 12.041812 1 7 poisson 500 ------- 0 1.0 7.0 129 345
r 12.047074 1 7 poisson 500 ------- 0 1.0 7.0 130 346
+ 12.059539 1 7 poisson 500 ------- 0 1.0 7.0 131 347
- 12.059539 1 7 poisson 500 ------- 0 1.0 7.0 131 347
r 12.073539 1 7 poisson 500 ------- 0 1.0 7.0 131 347
+ 12.095246 1 7 poisson 500 ------- 0 1.0 7.0 132 348
- 12.095246 1 7 poisson 500 ------- 0 1.0 7.0 132 348
r 12.109246 1 7 poisson 500 ------- 0 1.0 7.0 132 348
+ 12.111912 1 7 poisson 500 ------- 0 1.0 7.0 133 349
- 12.111912 1 7 poisson 500 ------- 0 1.0 7.0 133 349
+ 12.120789 1 7 poisson 500 ------- 0 1.0 7.0 134 350
- 12.120789 1 7 poisson 500 ------- 0 1.0 7.0 134 350
r 12.125912 1 7 poisson 500 ------- 0 1.0 7.0 133 349
r 12.134789 1 7 poisson 500 ------- 0 1.0 7.0 134 350
+ 12.143407 1 7 poisson 500 ------- 0 1.0 7.0 135 351
- 12.143407 1 7 poisson 500 ------- 0 1.0 7.0 135 351
+ 12.143458 1 7 poisson 500 ------- 0 1.0 7.0 136 352
- 12.147407 1 7 poisson 500 ------- 0 1.0 7.0 136 352
+ 12.156372 1 7 poisson 500 ------- 0 1.0 7.0 137 353
- 12.156372 1 7 poisson 500 ------- 0 1.0 7.0 137 353
r 12.157407 1 7 poisson 500 ------- 0 1.0 7.0 135 351
r 12.161407 1 7 poisson 500 ------- 0 1.0 7.0 136 352
+ 12.169446 1 7 poisson 500 ------- 0 1.0 7.0 138 354
- 12.169446 1 7 poisson 500 ------- 0 1.0 7.0 138 354
r 12.170372 1 7 poisson 500 ------- 0 1.0 7.0 137 353
+ 12.174108 1 7 poisson 500 ------- 0 1.0 7.0 139 355
- 12.174108 1 7 poisson 500 ------- 0 1.0 7.0 139 355
+ 12.177374 1 7 poisson 500 ------- 0 1.0 7.0 140 356
- 12.178108 1 7 poisson 500 ------- 0 1.0 7.0 140 356
r 12.183446 1 7 poisson 500 ------- 0 1.0 7.0 138 354
r 12.188108 1 7 poisson 500 ------- 0 1.0 7.0 139 355
r 12.192108 1 7 poisson 500 ------- 0 1.0 7.0 140 356
+ 12.195952 1 7 poisson 500 ------- 0 1.0 7.0 141 357
- 12.195952 1 7 poisson 500 ------- 0 1.0 7.0 141 357
r 12.209952 1 7 poisson 500 ------- 0 1.0 7.0 141 357
+ 12.212922 1 7 poisson 500 ------- 0 1.0 7.0 142 358
- 12.212922 1 7 poisson 500 ------- 0 1.0 7.0 142 358
+ 12.215067 1 7 poisson 500 ------- 0 1.0 7.0 143 359
- 12.216922 1 7 poisson 500 ------- 0 1.0 7.0 143 359
r 12.226922 1 7 poisson 500 ------- 0 1.0 7.0 142 358
r 12.230922 1 7 poisson 500 ------- 0 1.0 7.0 143 359
+ 12.265648 1 7 poisson 500 ------- 0 1.0 7.0 144 360
- 12.265648 1 7 poisson 500 ------- 0 1.0 7.0 144 360
+ 12.270957 1 7 poisson 500 ------- 0 1.0 7.0 145 361
- 12.270957 1 7 poisson 500 ------- 0 1.0 7.0 145 361
+ 12.273837 1 7 poisson 500 ------- 0 1.0 7.0 146 362
- 12.274957 1 7 poisson 500 ------- 0 1.0 7.0 146 362
r 12.279648 1 7 poisson 500 ------- 0 1.0 7.0 144 360
+ 12.284503 1 7 poisson 500 ------- 0 1.0 7.0 147 363
- 12.284503 1 7 poisson 500 ------- 0 1.0 7.0 147 363
r 12.284957 1 7 poisson 500 ------- 0 1.0 7.0 145 361
r 12.288957 1 7 poisson 500 ------- 0 1.0 7.0 146 362
r 12.298503 1 7 poisson 500 ------- 0 1.0 7.0 147 363
+ 12.304389 1 7 poisson 500 ------- 0 1.0 7.0 148 364
- 12.304389 1 7 poisson 500 ------- 0 1.0 7.0 148 364
r 12.318389 1 7 poisson 500 ------- 0 1.0 7.0 148 364
+ 12.319188 1 7 poisson 500 ------- 0 1.0 7.0 149 365
- 12.319188 1 7 poisson 500 ------- 0 1.0 7.0 149 365
r 12.333188 1 7 poisson 500 ------- 0 1.0 7.0 149 365
+ 12.339017 1 7 poisson 500 ------- 0 1.0 7.0 150 366
- 12.339017 1 7 poisson 500 ------- 0 1.0 7.0 150 366
+ 12.352882 1 7 poisson 500 ------- 0 1.0 7.0 151 367
- 12.352882 1 7 poisson 500 ------- 0 1.0 7.0 151 367
r 12.353017 1 7 poisson 500 ------- 0 1.0 7.0 150 366
r 12.366882 1 7 poisson 500 ------- 0 1.0 7.0 151 367
+ 12.378056 1 7 poisson 500 ------- 0 1.0 7.0 152 368
- 12.378056 1 7 poisson 500 ------- 0 1.0 7.0 152 368
r 12.392056 1 7 poisson 500 ------- 0 1.0 7.0 152 368
+ 12.450248 1 7 poisson 500 ------- 0 1.0 7.0 153 369
- 12.450248 1 7 poisson 500 ------- 0 1.0 7.0 153 369
+ 12.460198 1 7 poisson 500 ------- 0 1.0 7.0 154 370
- 12.460198 1 7 poisson 500 ------- 0 1.0 7.0 154 370
r 12.464248 1 7 poisson 500 ------- 0 1.0 7.0 153 369
r 12.474198 1 7 poisson 500 ------- 0 1.0 7.0 154 370
+ 12.476053 1 7 poisson 500 ------- 0 1.0 7.0 155 371
- 12.476053 1 7 poisson 500 ------- 0 1.0 7.0 155 371
+ 12.47626 1 7 poisson 500 ------- 0 1.0 7.0 156 372
- 12.480053 1 7 poisson 500 ------- 0 1.0 7.0 156 372
+ 12.484321 1 7 poisson 500 ------- 0 1.0 7.0 157 373
- 12.484321 1 7 poisson 500 ------- 0 1.0 7.0 157 373
+ 12.488053 1 7 poisson 500 ------- 0 1.0 7.0 158 374
- 12.488321 1 7 poisson 500 ------- 0 1.0 7.0 158 374
r 12.490053 1 7 poisson 500 ------- 0 1.0 7.0 155 371
r 12.494053 1 7 poisson 500 ------- 0 1.0 7.0 156 372
r 12.498321 1 7 poisson 500 ------- 0 1.0 7.0 157 373
r 12.502321 1 7 poisson 500 ------- 0 1.0 7.0 158 374
+ 12.505699 1 7 poisson 500 ------- 0 1.0 7.0 159 375
- 12.505699 1 7 poisson 500 ------- 0 1.0 7.0 159 375
r 12.519699 1 7 poisson 500 ------- 0 1.0 7.0 159 375
+ 12.520474 1 7 poisson 500 ------- 0 1.0 7.0 160 376
- 12.520474 1 7 poisson 500 ------- 0 1.0 7.0 160 376
+ 12.520528 1 7 poisson 500 ------- 0 1.0 7.0 161 377
+ 12.521808 1 7 poisson 500 ------- 0 1.0 7.0 162 378
- 12.524474 1 7 poisson 500 ------- 0 1.0 7.0 161 377
+ 12.526694 1 7 poisson 500 ------- 0 1.0 7.0 163 379
- 12.528474 1 7 poisson 500 ------- 0 1.0 7.0 162 378
- 12.532474 1 7 poisson 500 ------- 0 1.0 7.0 163 379
r 12.534474 1 7 poisson 500 ------- 0 1.0 7.0 160 376
r 12.538474 1 7 poisson 500 ------- 0 1.0 7.0 161 377
r 12.542474 1 7 poisson 500 ------- 0 1.0 7.0 162 378
+ 12.546154 1 7 poisson 500 ------- 0 1.0 7.0 164 380
- 12.546154 1 7 poisson 500 ------- 0 1.0 7.0 164 380
r 12.546474 1 7 poisson 500 ------- 0 1.0 7.0 163 379
+ 12.548664 1 7 poisson 500 ------- 0 1.0 7.0 165 381
- 12.550154 1 7 poisson 500 ------- 0 1.0 7.0 165 381
+ 12.557294 1 7 poisson 500 ------- 0 1.0 7.0 166 382
- 12.557294 1 7 poisson 500 ------- 0 1.0 7.0 166 382
r 12.560154 1 7 poisson 500 ------- 0 1.0 7.0 164 380
r 12.564154 1 7 poisson 500 ------- 0 1.0 7.0 165 381
r 12.571294 1 7 poisson 500 ------- 0 1.0 7.0 166 382
+ 12.571963 1 7 poisson 500 ------- 0 1.0 7.0 167 383
- 12.571963 1 7 poisson 500 ------- 0 1.0 7.0 167 383
r 12.585963 1 7 poisson 500 ------- 0 1.0 7.0 167 383
+ 12.599689 1 7 poisson 500 ------- 0 1.0 7.0 168 384
- 12.599689 1 7 poisson 500 ------- 0 1.0 7.0 168 384
+ 12.599875 1 7 poisson 500 ------- 0 1.0 7.0 169 385
- 12.603689 1 7 poisson 500 ------- 0 1.0 7.0 169 385
+ 12.612947 1 7 poisson 500 ------- 0 1.0 7.0 170 386
- 12.612947 1 7 poisson 500 ------- 0 1.0 7.0 170 386
r 12.613689 1 7 poisson 500 ------- 0 1.0 7.0 168 384
+ 12.616333 1 7 poisson 500 ------- 0 1.0 7.0 171 387
- 12.616947 1 7 poisson 500 ------- 0 1.0 7.0 171 387
r 12.617689 1 7 poisson 500 ------- 0 1.0 7.0 169 385
+ 12.625798 1 7 poisson 500 ------- 0 1.0 7.0 172 388
- 12.625798 1 7 poisson 500 ------- 0 1.0 7.0 172 388
+ 12.625953 1 7 poisson 500 ------- 0 1.0 7.0 173 389
r 12.626947 1 7 poisson 500 ------- 0 1.0 7.0 170 386
- 12.629798 1 7 poisson 500 ------- 0 1.0 7.0 173 389
r 12.630947 1 7 poisson 500 ------- 0 1.0 7.0 171 387
r 12.639798 1 7 poisson 500 ------- 0 1.0 7.0 172 388
r 12.643798 1 7 poisson 500 ------- 0 1.0 7.0 173 389
+ 12.655688 1 7 poisson 500 ------- 0 1.0 7.0 174 390
- 12.655688 1 7 poisson 500 ------- 0 1.0 7.0 174 390
+ 12.661788 1 7 poisson 500 ------- 0 1.0 7.0 175 391
- 12.661788 1 7 poisson 500 ------- 0 1.0 7.0 175 391
r 12.669688 1 7 poisson 500 ------- 0 1.0 7.0 174 390
r 12.675788 1 7 poisson 500 ------- 0 1.0 7.0 175 391
+ 12.682433 1 7 poisson 500 ------- 0 1.0 7.0 176 392
- 12.682433 1 7 poisson 500 ------- 0 1.0 7.0 176 392
r 12.696433 1 7 poisson 500 ------- 0 1.0 7.0 176 392
+ 12.711592 1 7 poisson 500 ------- 0 1.0 7.0 177 393
- 12.711592 1 7 poisson 500 ------- 0 1.0 7.0 177 393
r 12.725592 1 7 poisson 500 ------- 0 1.0 7.0 177 393
+ 12.750323 1 7 poisson 500 ------- 0 1.0 7.0 178 394
- 12.750323 1 7 poisson 500 ------- 0 1.0 7.0 178 394
+ 12.750758 1 7 poisson 500 ------- 0 1.0 7.0 179 395
- 12.754323 1 7 poisson 500 ------- 0 1.0 7.0 179 395
r 12.764323 1 7 poisson 500 ------- 0 1.0 7.0 178 394
r 12.768323 1 7 poisson 500 ------- 0 1.0 7.0 179 395
+ 12.805542 1 7 poisson 500 ------- 0 1.0 7.0 180 396
- 12.805542 1 7 poisson 500 ------- 0 1.0 7.0 180 396
r 12.819542 1 7 poisson 500 ------- 0 1.0 7.0 180 396
+ 12.820156 1 7 poisson 500 ------- 0 1.0 7.0 181 397
- 12.820156 1 7 poisson 500 ------- 0 1.0 7.0 181 397
r 12.834156 1 7 poisson 500 ------- 0 1.0 7.0 181 397
+ 12.851843 1 7 poisson 500 ------- 0 1.0 7.0 182 398
- 12.851843 1 7 poisson 500 ------- 0 1.0 7.0 182 398
+ 12.863447 1 7 poisson 500 ------- 0 1.0 7.0 183 399
- 12.863447 1 7 poisson 500 ------- 0 1.0 7.0 183 399
r 12.865843 1 7 poisson 500 ------- 0 1.0 7.0 182 398
r 12.877447 1 7 poisson 500 ------- 0 1.0 7.0 183 399
+ 12.890439 1 7 poisson 500 ------- 0 1.0 7.0 184 400
- 12.890439 1 7 poisson 500 ------- 0 1.0 7.0 184 400
+ 12.894526 1 7 poisson 500 ------- 0 1.0 7.0 185 401
- 12.894526 1 7 poisson 500 ------- 0 1.0 7.0 185 401
r 12.904439 1 7 poisson 500 ------- 0 1.0 7.0 184 400
r 12.908526 1 7 poisson 500 ------- 0 1.0 7.0 185 401
+ 12.919338 1 7 poisson 500 ------- 0 1.0 7.0 186 402
- 12.919338 1 7 poisson 500 ------- 0 1.0 7.0 186 402
+ 12.923756 1 7 poisson 500 ------- 0 1.0 7.0 187 403
- 12.923756 1 7 poisson 500 ------- 0 1.0 7.0 187 403