+ 20 2 7 poisson 500 ------- 0 2.0 7.0 0 854
- 20 2 7 poisson 500 ------- 0 2.0 7.0 0 854
+ 20.009334 2 7 poisson 500 ------- 0 2.0 7.0 1 855
- 20.009334 2 7 poisson 500 ------- 0 2.0 7.0 1 855
r 20.014 2 7 poisson 500 ------- 0 2.0 7.0 0 854
+ 20.014948 2 7 poisson 500 ------- 0 2.0 7.0 2 856
- 20.014948 2 7 poisson 500 ------- 0 2.0 7.0 2 856
+ 20.017689 2 7 poisson 500 ------- 0 2.0 7.0 3 857
- 20.018948 2 7 poisson 500 ------- 0 2.0 7.0 3 857
+ 20.020703 2 7 poisson 500 ------- 0 2.0 7.0 4 858
- 20.022948 2 7 poisson 500 ------- 0 2.0 7.0 4 858
r 20.023334 2 7 poisson 500 ------- 0 2.0 7.0 1 855
r 20.028948 2 7 poisson 500 ------- 0 2.0 7.0 2 856
r 20.032948 2 7 poisson 500 ------- 0 2.0 7.0 3 857
r 20.036948 2 7 poisson 500 ------- 0 2.0 7.0 4 858
+ 20.051072 2 7 poisson 500 ------- 0 2.0 7.0 5 859
- 20.051072 2 7 poisson 500 ------- 0 2.0 7.0 5 859
+ 20.05819 2 7 poisson 500 ------- 0 2.0 7.0 6 860
- 20.05819 2 7 poisson 500 ------- 0 2.0 7.0 6 860
r 20.065072 2 7 poisson 500 ------- 0 2.0 7.0 5 859
+ 20.065326 2 7 poisson 500 ------- 0 2.0 7.0 7 861
- 20.065326 2 7 poisson 500 ------- 0 2.0 7.0 7 861
+ 20.070577 2 7 poisson 500 ------- 0 2.0 7.0 8 862
- 20.070577 2 7 poisson 500 ------- 0 2.0 7.0 8 862
+ 20.071061 2 7 poisson 500 ------- 0 2.0 7.0 9 863
r 20.07219 2 7 poisson 500 ------- 0 2.0 7.0 6 860
- 20.074577 2 7 poisson 500 ------- 0 2.0 7.0 9 863
+ 20.077815 2 7 poisson 500 ------- 0 2.0 7.0 10 864
- 20.078577 2 7 poisson 500 ------- 0 2.0 7.0 10 864
r 20.079326 2 7 poisson 500 ------- 0 2.0 7.0 7 861
r 20.084577 2 7 poisson 500 ------- 0 2.0 7.0 8 862
r 20.088577 2 7 poisson 500 ------- 0 2.0 7.0 9 863
r 20.092577 2 7 poisson 500 ------- 0 2.0 7.0 10 864
+ 20.096796 2 7 poisson 500 ------- 0 2.0 7.0 11 865
- 20.096796 2 7 poisson 500 ------- 0 2.0 7.0 11 865
+ 20.102479 2 7 poisson 500 ------- 0 2.0 7.0 12 866
- 20.102479 2 7 poisson 500 ------- 0 2.0 7.0 12 866
+ 20.107368 2 7 poisson 500 ------- 0 2.0 7.0 13 867
- 20.107368 2 7 poisson 500 ------- 0 2.0 7.0 13 867
r 20.110796 2 7 poisson 500 ------- 0 2.0 7.0 11 865
r 20.116479 2 7 poisson 500 ------- 0 2.0 7.0 12 866
r 20.121368 2 7 poisson 500 ------- 0 2.0 7.0 13 867
+ 20.124001 2 7 poisson 500 ------- 0 2.0 7.0 14 868
- 20.124001 2 7 poisson 500 ------- 0 2.0 7.0 14 868
+ 20.12446 2 7 poisson 500 ------- 0 2.0 7.0 15 869
+ 20.127522 2 7 poisson 500 ------- 0 2.0 7.0 16 870
- 20.128001 2 7 poisson 500 ------- 0 2.0 7.0 15 869
+ 20.131635 2 7 poisson 500 ------- 0 2.0 7.0 17 871
- 20.132001 2 7 poisson 500 ------- 0 2.0 7.0 16 870
+ 20.135309 2 7 poisson 500 ------- 0 2.0 7.0 18 872
- 20.136001 2 7 poisson 500 ------- 0 2.0 7.0 17 871
r 20.138001 2 7 poisson 500 ------- 0 2.0 7.0 14 868
- 20.140001 2 7 poisson 500 ------- 0 2.0 7.0 18 872
r 20.142001 2 7 poisson 500 ------- 0 2.0 7.0 15 869
r 20.146001 2 7 poisson 500 ------- 0 2.0 7.0 16 870
r 20.150001 2 7 poisson 500 ------- 0 2.0 7.0 17 871
+ 20.153099 2 7 poisson 500 ------- 0 2.0 7.0 19 873
- 20.153099 2 7 poisson 500 ------- 0 2.0 7.0 19 873
r 20.154001 2 7 poisson 500 ------- 0 2.0 7.0 18 872
+ 20.165319 2 7 poisson 500 ------- 0 2.0 7.0 20 874
- 20.165319 2 7 poisson 500 ------- 0 2.0 7.0 20 874
r 20.167099 2 7 poisson 500 ------- 0 2.0 7.0 19 873
+ 20.174899 2 7 poisson 500 ------- 0 2.0 7.0 21 875
- 20.174899 2 7 poisson 500 ------- 0 2.0 7.0 21 875
r 20.179319 2 7 poisson 500 ------- 0 2.0 7.0 20 874
+ 20.179436 2 7 poisson 500 ------- 0 2.0 7.0 22 876
- 20.179436 2 7 poisson 500 ------- 0 2.0 7.0 22 876
+ 20.185388 2 7 poisson 500 ------- 0 2.0 7.0 23 877
- 20.185388 2 7 poisson 500 ------- 0 2.0 7.0 23 877
r 20.188899 2 7 poisson 500 ------- 0 2.0 7.0 21 875
+ 20.189584 2 7 poisson 500 ------- 0 2.0 7.0 24 878
- 20.189584 2 7 poisson 500 ------- 0 2.0 7.0 24 878
r 20.193436 2 7 poisson 500 ------- 0 2.0 7.0 22 876
r 20.199388 2 7 poisson 500 ------- 0 2.0 7.0 23 877
+ 20.203071 2 7 poisson 500 ------- 0 2.0 7.0 25 879
- 20.203071 2 7 poisson 500 ------- 0 2.0 7.0 25 879
r 20.203584 2 7 poisson 500 ------- 0 2.0 7.0 24 878
+ 20.204836 2 7 poisson 500 ------- 0 2.0 7.0 26 880
- 20.207071 2 7 poisson 500 ------- 0 2.0 7.0 26 880
+ 20.210847 2 7 poisson 500 ------- 0 2.0 7.0 27 881
- 20.211071 2 7 poisson 500 ------- 0 2.0 7.0 27 881
+ 20.215389 2 7 poisson 500 ------- 0 2.0 7.0 28 882
- 20.215389 2 7 poisson 500 ------- 0 2.0 7.0 28 882
r 20.217071 2 7 poisson 500 ------- 0 2.0 7.0 25 879
r 20.221071 2 7 poisson 500 ------- 0 2.0 7.0 26 880
r 20.225071 2 7 poisson 500 ------- 0 2.0 7.0 27 881
r 20.229389 2 7 poisson 500 ------- 0 2.0 7.0 28 882
+ 20.230289 2 7 poisson 500 ------- 0 2.0 7.0 29 883
- 20.230289 2 7 poisson 500 ------- 0 2.0 7.0 29 883
r 20.244289 2 7 poisson 500 ------- 0 2.0 7.0 29 883
+ 20.257262 2 7 poisson 500 ------- 0 2.0 7.0 30 884
- 20.257262 2 7 poisson 500 ------- 0 2.0 7.0 30 884
r 20.271262 2 7 poisson 500 ------- 0 2.0 7.0 30 884
+ 20.276583 2 7 poisson 500 ------- 0 2.0 7.0 31 885
- 20.276583 2 7 poisson 500 ------- 0 2.0 7.0 31 885
r 20.290583 2 7 poisson 500 ------- 0 2.0 7.0 31 885
+ 20.315994 2 7 poisson 500 ------- 0 2.0 7.0 32 886
- 20.315994 2 7 poisson 500 ------- 0 2.0 7.0 32 886
+ 20.323146 2 7 poisson 500 ------- 0 2.0 7.0 33 887
- 20.323146 2 7 poisson 500 ------- 0 2.0 7.0 33 887
r 20.329994 2 7 poisson 500 ------- 0 2.0 7.0 32 886
+ 20.336171 2 7 poisson 500 ------- 0 2.0 7.0 34 888
- 20.336171 2 7 poisson 500 ------- 0 2.0 7.0 34 888
r 20.337146 2 7 poisson 500 ------- 0 2.0 7.0 33 887
+ 20.340484 2 7 poisson 500 ------- 0 2.0 7.0 35 889
- 20.340484 2 7 poisson 500 ------- 0 2.0 7.0 35 889
+ 20.347107 2 7 poisson 500 ------- 0 2.0 7.0 36 890
- 20.347107 2 7 poisson 500 ------- 0 2.0 7.0 36 890
r 20.350171 2 7 poisson 500 ------- 0 2.0 7.0 34 888
r 20.354484 2 7 poisson 500 ------- 0 2.0 7.0 35 889
+ 20.356486 2 7 poisson 500 ------- 0 2.0 7.0 37 891
- 20.356486 2 7 poisson 500 ------- 0 2.0 7.0 37 891
+ 20.357296 2 7 poisson 500 ------- 0 2.0 7.0 38 892
- 20.360486 2 7 poisson 500 ------- 0 2.0 7.0 38 892
r 20.361107 2 7 poisson 500 ------- 0 2.0 7.0 36 890
r 20.370486 2 7 poisson 500 ------- 0 2.0 7.0 37 891
r 20.374486 2 7 poisson 500 ------- 0 2.0 7.0 38 892
+ 20.384769 2 7 poisson 500 ------- 0 2.0 7.0 39 893
- 20.384769 2 7 poisson 500 ------- 0 2.0 7.0 39 893
+ 20.390056 2 7 poisson 500 ------- 0 2.0 7.0 40 894
- 20.390056 2 7 poisson 500 ------- 0 2.0 7.0 40 894
r 20.398769 2 7 poisson 500 ------- 0 2.0 7.0 39 893
r 20.404056 2 7 poisson 500 ------- 0 2.0 7.0 40 894
+ 20.405725 2 7 poisson 500 ------- 0 2.0 7.0 41 895
- 20.405725 2 7 poisson 500 ------- 0 2.0 7.0 41 895
+ 20.408261 2 7 poisson 500 ------- 0 2.0 7.0 42 896
- 20.409725 2 7 poisson 500 ------- 0 2.0 7.0 42 896
+ 20.417347 2 7 poisson 500 ------- 0 2.0 7.0 43 897
- 20.417347 2 7 poisson 500 ------- 0 2.0 7.0 43 897
r 20.419725 2 7 poisson 500 ------- 0 2.0 7.0 41 895
r 20.423725 2 7 poisson 500 ------- 0 2.0 7.0 42 896
r 20.431347 2 7 poisson 500 ------- 0 2.0 7.0 43 897
+ 20.441026 2 7 poisson 500 ------- 0 2.0 7.0 44 898
- 20.441026 2 7 poisson 500 ------- 0 2.0 7.0 44 898
+ 20.443207 2 7 poisson 500 ------- 0 2.0 7.0 45 899
+ 20.444953 2 7 poisson 500 ------- 0 2.0 7.0 46 900
- 20.445026 2 7 poisson 500 ------- 0 2.0 7.0 45 899
- 20.449026 2 7 poisson 500 ------- 0 2.0 7.0 46 900
r 20.455026 2 7 poisson 500 ------- 0 2.0 7.0 44 898
+ 20.456473 2 7 poisson 500 ------- 0 2.0 7.0 47 901
- 20.456473 2 7 poisson 500 ------- 0 2.0 7.0 47 901
+ 20.457441 2 7 poisson 500 ------- 0 2.0 7.0 48 902
+ 20.457446 2 7 poisson 500 ------- 0 2.0 7.0 49 903
+ 20.458526 2 7 poisson 500 ------- 0 2.0 7.0 50 904
r 20.459026 2 7 poisson 500 ------- 0 2.0 7.0 45 899
- 20.460473 2 7 poisson 500 ------- 0 2.0 7.0 48 902
r 20.463026 2 7 poisson 500 ------- 0 2.0 7.0 46 900
+ 20.464188 2 7 poisson 500 ------- 0 2.0 7.0 51 905
- 20.464473 2 7 poisson 500 ------- 0 2.0 7.0 49 903
+ 20.46479 2 7 poisson 500 ------- 0 2.0 7.0 52 906
+ 20.46727 2 7 poisson 500 ------- 0 2.0 7.0 53 907
- 20.468473 2 7 poisson 500 ------- 0 2.0 7.0 50 904
r 20.470473 2 7 poisson 500 ------- 0 2.0 7.0 47 901
- 20.472473 2 7 poisson 500 ------- 0 2.0 7.0 51 905
r 20.474473 2 7 poisson 500 ------- 0 2.0 7.0 48 902
- 20.476473 2 7 poisson 500 ------- 0 2.0 7.0 52 906
r 20.478473 2 7 poisson 500 ------- 0 2.0 7.0 49 903
- 20.480473 2 7 poisson 500 ------- 0 2.0 7.0 53 907
r 20.482473 2 7 poisson 500 ------- 0 2.0 7.0 50 904
r 20.486473 2 7 poisson 500 ------- 0 2.0 7.0 51 905
+ 20.487251 2 7 poisson 500 ------- 0 2.0 7.0 54 908
- 20.487251 2 7 poisson 500 ------- 0 2.0 7.0 54 908
r 20.490473 2 7 poisson 500 ------- 0 2.0 7.0 52 906
r 20.494473 2 7 poisson 500 ------- 0 2.0 7.0 53 907
r 20.501251 2 7 poisson 500 ------- 0 2.0 7.0 54 908
+ 20.510571 2 7 poisson 500 ------- 0 2.0 7.0 55 909
- 20.510571 2 7 poisson 500 ------- 0 2.0 7.0 55 909
+ 20.522416 2 7 poisson 500 ------- 0 2.0 7.0 56 910
- 20.522416 2 7 poisson 500 ------- 0 2.0 7.0 56 910
r 20.524571 2 7 poisson 500 ------- 0 2.0 7.0 55 909
+ 20.527209 2 7 poisson 500 ------- 0 2.0 7.0 57 911
- 20.527209 2 7 poisson 500 ------- 0 2.0 7.0 57 911
+ 20.528118 2 7 poisson 500 ------- 0 2.0 7.0 58 912
+ 20.529209 2 7 poisson 500 ------- 0 2.0 7.0 59 913
- 20.531209 2 7 poisson 500 ------- 0 2.0 7.0 58 912
+ 20.531309 2 7 poisson 500 ------- 0 2.0 7.0 60 914
+ 20.534657 2 7 poisson 500 ------- 0 2.0 7.0 61 915
- 20.535209 2 7 poisson 500 ------- 0 2.0 7.0 59 913
r 20.536416 2 7 poisson 500 ------- 0 2.0 7.0 56 910
+ 20.537811 2 7 poisson 500 ------- 0 2.0 7.0 62 916
- 20.539209 2 7 poisson 500 ------- 0 2.0 7.0 60 914
+ 20.539486 2 7 poisson 500 ------- 0 2.0 7.0 63 917
+ 20.5403 2 7 poisson 500 ------- 0 2.0 7.0 64 918
r 20.541209 2 7 poisson 500 ------- 0 2.0 7.0 57 911
- 20.543209 2 7 poisson 500 ------- 0 2.0 7.0 61 915
r 20.545209 2 7 poisson 500 ------- 0 2.0 7.0 58 912
- 20.547209 2 7 poisson 500 ------- 0 2.0 7.0 62 916
r 20.549209 2 7 poisson 500 ------- 0 2.0 7.0 59 913
+ 20.55059 2 7 poisson 500 ------- 0 2.0 7.0 65 919
- 20.551209 2 7 poisson 500 ------- 0 2.0 7.0 63 917
+ 20.552814 2 7 poisson 500 ------- 0 2.0 7.0 66 920
r 20.553209 2 7 poisson 500 ------- 0 2.0 7.0 60 914
- 20.555209 2 7 poisson 500 ------- 0 2.0 7.0 64 918
r 20.557209 2 7 poisson 500 ------- 0 2.0 7.0 61 915
- 20.559209 2 7 poisson 500 ------- 0 2.0 7.0 65 919
r 20.561209 2 7 poisson 500 ------- 0 2.0 7.0 62 916
- 20.563209 2 7 poisson 500 ------- 0 2.0 7.0 66 920
+ 20.563351 2 7 poisson 500 ------- 0 2.0 7.0 67 921
r 20.565209 2 7 poisson 500 ------- 0 2.0 7.0 63 917
- 20.567209 2 7 poisson 500 ------- 0 2.0 7.0 67 921
r 20.569209 2 7 poisson 500 ------- 0 2.0 7.0 64 918
r 20.573209 2 7 poisson 500 ------- 0 2.0 7.0 65 919
r 20.577209 2 7 poisson 500 ------- 0 2.0 7.0 66 920
r 20.581209 2 7 poisson 500 ------- 0 2.0 7.0 67 921
+ 20.602761 2 7 poisson 500 ------- 0 2.0 7.0 68 922
- 20.602761 2 7 poisson 500 ------- 0 2.0 7.0 68 922
+ 20.609246 2 7 poisson 500 ------- 0 2.0 7.0 69 923
- 20.609246 2 7 poisson 500 ------- 0 2.0 7.0 69 923
+ 20.612436 2 7 poisson 500 ------- 0 2.0 7.0 70 924
- 20.613246 2 7 poisson 500 ------- 0 2.0 7.0 70 924
r 20.616761 2 7 poisson 500 ------- 0 2.0 7.0 68 922
+ 20.623046 2 7 poisson 500 ------- 0 2.0 7.0 71 925
- 20.623046 2 7 poisson 500 ------- 0 2.0 7.0 71 925
r 20.623246 2 7 poisson 500 ------- 0 2.0 7.0 69 923
r 20.627246 2 7 poisson 500 ------- 0 2.0 7.0 70 924
r 20.637046 2 7 poisson 500 ------- 0 2.0 7.0 71 925
+ 20.644803 2 7 poisson 500 ------- 0 2.0 7.0 72 926
- 20.644803 2 7 poisson 500 ------- 0 2.0 7.0 72 926
+ 20.646646 2 7 poisson 500 ------- 0 2.0 7.0 73 927
- 20.648803 2 7 poisson 500 ------- 0 2.0 7.0 73 927
+ 20.652077 2 7 poisson 500 ------- 0 2.0 7.0 74 928
- 20.652803 2 7 poisson 500 ------- 0 2.0 7.0 74 928
r 20.658803 2 7 poisson 500 ------- 0 2.0 7.0 72 926
+ 20.661178 2 7 poisson 500 ------- 0 2.0 7.0 75 929
- 20.661178 2 7 poisson 500 ------- 0 2.0 7.0 75 929
r 20.662803 2 7 poisson 500 ------- 0 2.0 7.0 73 927
r 20.666803 2 7 poisson 500 ------- 0 2.0 7.0 74 928
r 20.675178 2 7 poisson 500 ------- 0 2.0 7.0 75 929
+ 20.678109 2 7 poisson 500 ------- 0 2.0 7.0 76 930
- 20.678109 2 7 poisson 500 ------- 0 2.0 7.0 76 930
+ 20.685236 2 7 poisson 500 ------- 0 2.0 7.0 77 931
- 20.685236 2 7 poisson 500 ------- 0 2.0 7.0 77 931
+ 20.686624 2 7 poisson 500 ------- 0 2.0 7.0 78 932
- 20.689236 2 7 poisson 500 ------- 0 2.0 7.0 78 932
+ 20.691672 2 7 poisson 500 ------- 0 2.0 7.0 79 933
r 20.692109 2 7 poisson 500 ------- 0 2.0 7.0 76 930
- 20.693236 2 7 poisson 500 ------- 0 2.0 7.0 79 933
+ 20.694405 2 7 poisson 500 ------- 0 2.0 7.0 80 934
- 20.697236 2 7 poisson 500 ------- 0 2.0 7.0 80 934
r 20.699236 2 7 poisson 500 ------- 0 2.0 7.0 77 931
+ 20.701857 2 7 poisson 500 ------- 0 2.0 7.0 81 935
- 20.701857 2 7 poisson 500 ------- 0 2.0 7.0 81 935
+ 20.702048 2 7 poisson 500 ------- 0 2.0 7.0 82 936
r 20.703236 2 7 poisson 500 ------- 0 2.0 7.0 78 932
- 20.705857 2 7 poisson 500 ------- 0 2.0 7.0 82 936
r 20.707236 2 7 poisson 500 ------- 0 2.0 7.0 79 933
+ 20.709383 2 7 poisson 500 ------- 0 2.0 7.0 83 937
- 20.709857 2 7 poisson 500 ------- 0 2.0 7.0 83 937
r 20.711236 2 7 poisson 500 ------- 0 2.0 7.0 80 934
r 20.715857 2 7 poisson 500 ------- 0 2.0 7.0 81 935
r 20.719857 2 7 poisson 500 ------- 0 2.0 7.0 82 936
+ 20.723743 2 7 poisson 500 ------- 0 2.0 7.0 84 938
- 20.723743 2 7 poisson 500 ------- 0 2.0 7.0 84 938
r 20.723857 2 7 poisson 500 ------- 0 2.0 7.0 83 937
+ 20.728806 2 7 poisson 500 ------- 0 2.0 7.0 85 939
- 20.728806 2 7 poisson 500 ------- 0 2.0 7.0 85 939
+ 20.731609 2 7 poisson 500 ------- 0 2.0 7.0 86 940
+ 20.73258 2 7 poisson 500 ------- 0 2.0 7.0 87 941
- 20.732806 2 7 poisson 500 ------- 0 2.0 7.0 86 940
- 20.736806 2 7 poisson 500 ------- 0 2.0 7.0 87 941
r 20.737743 2 7 poisson 500 ------- 0 2.0 7.0 84 938
r 20.742806 2 7 poisson 500 ------- 0 2.0 7.0 85 939
r 20.746806 2 7 poisson 500 ------- 0 2.0 7.0 86 940
r 20.750806 2 7 poisson 500 ------- 0 2.0 7.0 87 941
+ 20.753893 2 7 poisson 500 ------- 0 2.0 7.0 88 942
- 20.753893 2 7 poisson 500 ------- 0 2.0 7.0 88 942
+ 20.767034 2 7 poisson 500 ------- 0 2.0 7.0 89 943
- 20.767034 2 7 poisson 500 ------- 0 2.0 7.0 89 943
r 20.767893 2 7 poisson 500 ------- 0 2.0 7.0 88 942
+ 20.774634 2 7 poisson 500 ------- 0 2.0 7.0 90 944
- 20.774634 2 7 poisson 500 ------- 0 2.0 7.0 90 944
+ 20.781032 2 7 poisson 500 ------- 0 2.0 7.0 91 945
- 20.781032 2 7 poisson 500 ------- 0 2.0 7.0 91 945
r 20.781034 2 7 poisson 500 ------- 0 2.0 7.0 89 943
r 20.788634 2 7 poisson 500 ------- 0 2.0 7.0 90 944
r 20.795032 2 7 poisson 500 ------- 0 2.0 7.0 91 945
+ 20.799012 2 7 poisson 500 ------- 0 2.0 7.0 92 946
- 20.799012 2 7 poisson 500 ------- 0 2.0 7.0 92 946
+ 20.803942 2 7 poisson 500 ------- 0 2.0 7.0 93 947
- 20.803942 2 7 poisson 500 ------- 0 2.0 7.0 93 947
+ 20.809307 2 7 poisson 500 ------- 0 2.0 7.0 94 948
- 20.809307 2 7 poisson 500 ------- 0 2.0 7.0 94 948
r 20.813012 2 7 poisson 500 ------- 0 2.0 7.0 92 946
r 20.817942 2 7 poisson 500 ------- 0 2.0 7.0 93 947
+ 20.818001 2 7 poisson 500 ------- 0 2.0 7.0 95 949
- 20.818001 2 7 poisson 500 ------- 0 2.0 7.0 95 949
+ 20.823051 2 7 poisson 500 ------- 0 2.0 7.0 96 950
- 20.823051 2 7 poisson 500 ------- 0 2.0 7.0 96 950
r 20.823307 2 7 poisson 500 ------- 0 2.0 7.0 94 948
+ 20.829242 2 7 poisson 500 ------- 0 2.0 7.0 97 951
- 20.829242 2 7 poisson 500 ------- 0 2.0 7.0 97 951
r 20.832001 2 7 poisson 500 ------- 0 2.0 7.0 95 949
+ 20.832977 2 7 poisson 500 ------- 0 2.0 7.0 98 952
- 20.833242 2 7 poisson 500 ------- 0 2.0 7.0 98 952
+ 20.834637 2 7 poisson 500 ------- 0 2.0 7.0 99 953
+ 20.835956 2 7 poisson 500 ------- 0 2.0 7.0 100 954
r 20.837051 2 7 poisson 500 ------- 0 2.0 7.0 96 950
- 20.837242 2 7 poisson 500 ------- 0 2.0 7.0 99 953
+ 20.840303 2 7 poisson 500 ------- 0 2.0 7.0 101 955
- 20.841242 2 7 poisson 500 ------- 0 2.0 7.0 100 954
r 20.843242 2 7 poisson 500 ------- 0 2.0 7.0 97 951
- 20.845242 2 7 poisson 500 ------- 0 2.0 7.0 101 955
r 20.847242 2 7 poisson 500 ------- 0 2.0 7.0 98 952
r 20.851242 2 7 poisson 500 ------- 0 2.0 7.0 99 953
r 20.855242 2 7 poisson 500 ------- 0 2.0 7.0 100 954
r 20.859242 2 7 poisson 500 ------- 0 2.0 7.0 101 955
+ 20.859246 2 7 poisson 500 ------- 0 2.0 7.0 102 956
- 20.859246 2 7 poisson 500 ------- 0 2.0 7.0 102 956
+ 20.863594 2 7 poisson 500 ------- 0 2.0 7.0 103 957
- 20.863594 2 7 poisson 500 ------- 0 2.0 7.0 103 957
+ 20.864423 2 7 poisson 500 ------- 0 2.0 7.0 104 958
+ 20.864533 2 7 poisson 500 ------- 0 2.0 7.0 105 959
- 20.867594 2 7 poisson 500 ------- 0 2.0 7.0 104 958
- 20.871594 2 7 poisson 500 ------- 0 2.0 7.0 105 959
r 20.873246 2 7 poisson 500 ------- 0 2.0 7.0 102 956
+ 20.875372 2 7 poisson 500 ------- 0 2.0 7.0 106 960
- 20.875594 2 7 poisson 500 ------- 0 2.0 7.0 106 960
r 20.877594 2 7 poisson 500 ------- 0 2.0 7.0 103 957
+ 20.878078 2 7 poisson 500 ------- 0 2.0 7.0 107 961
- 20.879594 2 7 poisson 500 ------- 0 2.0 7.0 107 961
+ 20.879791 2 7 poisson 500 ------- 0 2.0 7.0 108 962
+ 20.881359 2 7 poisson 500 ------- 0 2.0 7.0 109 963
r 20.881594 2 7 poisson 500 ------- 0 2.0 7.0 104 958
- 20.883594 2 7 poisson 500 ------- 0 2.0 7.0 108 962
r 20.885594 2 7 poisson 500 ------- 0 2.0 7.0 105 959
+ 20.886092 2 7 poisson 500 ------- 0 2.0 7.0 110 964
- 20.887594 2 7 poisson 500 ------- 0 2.0 7.0 109 963
+ 20.888207 2 7 poisson 500 ------- 0 2.0 7.0 111 965
r 20.889594 2 7 poisson 500 ------- 0 2.0 7.0 106 960
- 20.891594 2 7 poisson 500 ------- 0 2.0 7.0 110 964
r 20.893594 2 7 poisson 500 ------- 0 2.0 7.0 107 961
- 20.895594 2 7 poisson 500 ------- 0 2.0 7.0 111 965
r 20.897594 2 7 poisson 500 ------- 0 2.0 7.0 108 962
r 20.901594 2 7 poisson 500 ------- 0 2.0 7.0 109 963
+ 20.901685 2 7 poisson 500 ------- 0 2.0 7.0 112 966
- 20.901685 2 7 poisson 500 ------- 0 2.0 7.0 112 966
r 20.905594 2 7 poisson 500 ------- 0 2.0 7.0 110 964
r 20.909594 2 7 poisson 500 ------- 0 2.0 7.0 111 965
+ 20.913948 2 7 poisson 500 ------- 0 2.0 7.0 113 967
- 20.913948 2 7 poisson 500 ------- 0 2.0 7.0 113 967
r 20.915685 2 7 poisson 500 ------- 0 2.0 7.0 112 966
+ 20.921837 2 7 poisson 500 ------- 0 2.0 7.0 114 968
- 20.921837 2 7 poisson 500 ------- 0 2.0 7.0 114 968
r 20.927948 2 7 poisson 500 ------- 0 2.0 7.0 113 967
r 20.935837 2 7 poisson 500 ------- 0 2.0 7.0 114 968
+ 20.937554 2 7 poisson 500 ------- 0 2.0 7.0 115 969
- 20.937554 2 7 poisson 500 ------- 0 2.0 7.0 115 969
+ 20.941618 2 7 poisson 500 ------- 0 2.0 7.0 116 970
- 20.941618 2 7 poisson 500 ------- 0 2.0 7.0 116 970
+ 20.945669 2 7 poisson 500 ------- 0 2.0 7.0 117 971
- 20.945669 2 7 poisson 500 ------- 0 2.0 7.0 117 971
+ 20.950855 2 7 poisson 500 ------- 0 2.0 7.0 118 972
- 20.950855 2 7 poisson 500 ------- 0 2.0 7.0 118 972
+ 20.951534 2 7 poisson 500 ------- 0 2.0 7.0 119 973
r 20.951554 2 7 poisson 500 ------- 0 2.0 7.0 115 969
+ 20.952264 2 7 poisson 500 ------- 0 2.0 7.0 120 974
- 20.954855 2 7 poisson 500 ------- 0 2.0 7.0 119 973
r 20.955618 2 7 poisson 500 ------- 0 2.0 7.0 116 970
+ 20.956941 2 7 poisson 500 ------- 0 2.0 7.0 121 975
- 20.958855 2 7 poisson 500 ------- 0 2.0 7.0 120 974
r 20.959669 2 7 poisson 500 ------- 0 2.0 7.0 117 971
+ 20.96275 2 7 poisson 500 ------- 0 2.0 7.0 122 976
- 20.962855 2 7 poisson 500 ------- 0 2.0 7.0 121 975
r 20.964855 2 7 poisson 500 ------- 0 2.0 7.0 118 972
- 20.966855 2 7 poisson 500 ------- 0 2.0 7.0 122 976
r 20.968855 2 7 poisson 500 ------- 0 2.0 7.0 119 973
+ 20.970617 2 7 poisson 500 ------- 0 2.0 7.0 123 977
- 20.970855 2 7 poisson 500 ------- 0 2.0 7.0 123 977
+ 20.971491 2 7 poisson 500 ------- 0 2.0 7.0 124 978
r 20.972855 2 7 poisson 500 ------- 0 2.0 7.0 120 974
- 20.974855 2 7 poisson 500 ------- 0 2.0 7.0 124 978
r 20.976855 2 7 poisson 500 ------- 0 2.0 7.0 121 975
r 20.980855 2 7 poisson 500 ------- 0 2.0 7.0 122 976
+ 20.982286 2 7 poisson 500 ------- 0 2.0 7.0 125 979
- 20.982286 2 7 poisson 500 ------- 0 2.0 7.0 125 979
r 20.984855 2 7 poisson 500 ------- 0 2.0 7.0 123 977
r 20.988855 2 7 poisson 500 ------- 0 2.0 7.0 124 978
+ 20.991189 2 7 poisson 500 ------- 0 2.0 7.0 126 980
- 20.991189 2 7 poisson 500 ------- 0 2.0 7.0 126 980
r 20.996286 2 7 poisson 500 ------- 0 2.0 7.0 125 979
+ 20.997483 2 7 poisson 500 ------- 0 2.0 7.0 127 981
- 20.997483 2 7 poisson 500 ------- 0 2.0 7.0 127 981
+ 21.000796 2 7 poisson 500 ------- 0 2.0 7.0 128 982
- 21.001483 2 7 poisson 500 ------- 0 2.0 7.0 128 982
+ 21.002505 2 7 poisson 500 ------- 0 2.0 7.0 129 983
+ 21.003091 2 7 poisson 500 ------- 0 2.0 7.0 130 984
r 21.005189 2 7 poisson 500 ------- 0 2.0 7.0 126 980
- 21.005483 2 7 poisson 500 ------- 0 2.0 7.0 129 983
- 21.009483 2 7 poisson 500 ------- 0 2.0 7.0 130 984
r 21.011483 2 7 poisson 500 ------- 0 2.0 7.0 127 981
r 21.015483 2 7 poisson 500 ------- 0 2.0 7.0 128 982
+ 21.017076 2 7 poisson 500 ------- 0 2.0 7.0 131 985
- 21.017076 2 7 poisson 500 ------- 0 2.0 7.0 131 985
r 21.019483 2 7 poisson 500 ------- 0 2.0 7.0 129 983
+ 21.02233 2 7 poisson 500 ------- 0 2.0 7.0 132 986
- 21.02233 2 7 poisson 500 ------- 0 2.0 7.0 132 986
r 21.023483 2 7 poisson 500 ------- 0 2.0 7.0 130 984
r 21.031076 2 7 poisson 500 ------- 0 2.0 7.0 131 985
+ 21.03538 2 7 poisson 500 ------- 0 2.0 7.0 133 987
- 21.03538 2 7 poisson 500 ------- 0 2.0 7.0 133 987
r 21.03633 2 7 poisson 500 ------- 0 2.0 7.0 132 986
+ 21.039289 2 7 poisson 500 ------- 0 2.0 7.0 134 988
- 21.03938 2 7 poisson 500 ------- 0 2.0 7.0 134 988
+ 21.048825 2 7 poisson 500 ------- 0 2.0 7.0 135 989
- 21.048825 2 7 poisson 500 ------- 0 2.0 7.0 135 989
+ 21.049144 2 7 poisson 500 ------- 0 2.0 7.0 136 990
+ 21.049166 2 7 poisson 500 ------- 0 2.0 7.0 137 991
r 21.04938 2 7 poisson 500 ------- 0 2.0 7.0 133 987
- 21.052825 2 7 poisson 500 ------- 0 2.0 7.0 136 990
r 21.05338 2 7 poisson 500 ------- 0 2.0 7.0 134 988
- 21.056825 2 7 poisson 500 ------- 0 2.0 7.0 137 991
r 21.062825 2 7 poisson 500 ------- 0 2.0 7.0 135 989
r 21.066825 2 7 poisson 500 ------- 0 2.0 7.0 136 990
r 21.070825 2 7 poisson 500 ------- 0 2.0 7.0 137 991
+ 21.071979 2 7 poisson 500 ------- 0 2.0 7.0 138 992
- 21.071979 2 7 poisson 500 ------- 0 2.0 7.0 138 992
+ 21.079853 2 7 poisson 500 ------- 0 2.0 7.0 139 993
- 21.079853 2 7 poisson 500 ------- 0 2.0 7.0 139 993
+ 21.082172 2 7 poisson 500 ------- 0 2.0 7.0 140 994
- 21.083853 2 7 poisson 500 ------- 0 2.0 7.0 140 994
r 21.085979 2 7 poisson 500 ------- 0 2.0 7.0 138 992
r 21.093853 2 7 poisson 500 ------- 0 2.0 7.0 139 993
r 21.097853 2 7 poisson 500 ------- 0 2.0 7.0 140 994
+ 21.100215 2 7 poisson 500 ------- 0 2.0 7.0 141 995
- 21.100215 2 7 poisson 500 ------- 0 2.0 7.0 141 995
+ 21.111665 2 7 poisson 500 ------- 0 2.0 7.0 142 996
- 21.111665 2 7 poisson 500 ------- 0 2.0 7.0 142 996
r 21.114215 2 7 poisson 500 ------- 0 2.0 7.0 141 995
r 21.125665 2 7 poisson 500 ------- 0 2.0 7.0 142 996
+ 21.126685 2 7 poisson 500 ------- 0 2.0 7.0 143 997
- 21.126685 2 7 poisson 500 ------- 0 2.0 7.0 143 997
+ 21.128459 2 7 poisson 500 ------- 0 2.0 7.0 144 998
- 21.130685 2 7 poisson 500 ------- 0 2.0 7.0 144 998
+ 21.130888 2 7 poisson 500 ------- 0 2.0 7.0 145 999
- 21.134685 2 7 poisson 500 ------- 0 2.0 7.0 145 999
+ 21.137433 2 7 poisson 500 ------- 0 2.0 7.0 146 1000
- 21.138685 2 7 poisson 500 ------- 0 2.0 7.0 146 1000
r 21.140685 2 7 poisson 500 ------- 0 2.0 7.0 143 997
r 21.144685 2 7 poisson 500 ------- 0 2.0 7.0 144 998
r 21.148685 2 7 poisson 500 ------- 0 2.0 7.0 145 999
r 21.152685 2 7 poisson 500 ------- 0 2.0 7.0 146 1000
+ 21.163182 2 7 poisson 500 ------- 0 2.0 7.0 147 1001
- 21.163182 2 7 poisson 500 ------- 0 2.0 7.0 147 1001
r 21.177182 2 7 poisson 500 ------- 0 2.0 7.0 147 1001
+ 21.181901 2 7 poisson 500 ------- 0 2.0 7.0 148 1002
- 21.181901 2 7 poisson 500 ------- 0 2.0 7.0 148 1002
+ 21.184036 2 7 poisson 500 ------- 0 2.0 7.0 149 1003
- 21.185901 2 7 poisson 500 ------- 0 2.0 7.0 149 1003
+ 21.192886 2 7 poisson 500 ------- 0 2.0 7.0 150 1004
- 21.192886 2 7 poisson 500 ------- 0 2.0 7.0 150 1004
r 21.195901 2 7 poisson 500 ------- 0 2.0 7.0 148 1002
r 21.199901 2 7 poisson 500 ------- 0 2.0 7.0 149 1003
r 21.206886 2 7 poisson 500 ------- 0 2.0 7.0 150 1004
+ 21.231216 2 7 poisson 500 ------- 0 2.0 7.0 151 1005
- 21.231216 2 7 poisson 500 ------- 0 2.0 7.0 151 1005
+ 21.236624 2 7 poisson 500 ------- 0 2.0 7.0 152 1006
- 21.236624 2 7 poisson 500 ------- 0 2.0 7.0 152 1006
r 21.245216 2 7 poisson 500 ------- 0 2.0 7.0 151 1005
r 21.250624 2 7 poisson 500 ------- 0 2.0 7.0 152 1006
+ 21.270073 2 7 poisson 500 ------- 0 2.0 7.0 153 1007
- 21.270073 2 7 poisson 500 ------- 0 2.0 7.0 153 1007
+ 21.272347 2 7 poisson 500 ------- 0 2.0 7.0 154 1008
+ 21.273355 2 7 poisson 500 ------- 0 2.0 7.0 155 1009
- 21.274073 2 7 poisson 500 ------- 0 2.0 7.0 154 1008
- 21.278073 2 7 poisson 500 ------- 0 2.0 7.0 155 1009
r 21.284073 2 7 poisson 500 ------- 0 2.0 7.0 153 1007
r 21.288073 2 7 poisson 500 ------- 0 2.0 7.0 154 1008
+ 21.288556 2 7 poisson 500 ------- 0 2.0 7.0 156 1010
- 21.288556 2 7 poisson 500 ------- 0 2.0 7.0 156 1010
+ 21.289509 2 7 poisson 500 ------- 0 2.0 7.0 157 1011
r 21.292073 2 7 poisson 500 ------- 0 2.0 7.0 155 1009
- 21.292556 2 7 poisson 500 ------- 0 2.0 7.0 157 1011
+ 21.300926 2 7 poisson 500 ------- 0 2.0 7.0 158 1012
- 21.300926 2 7 poisson 500 ------- 0 2.0 7.0 158 1012
r 21.302556 2 7 poisson 500 ------- 0 2.0 7.0 156 1010
r 21.306556 2 7 poisson 500 ------- 0 2.0 7.0 157 1011
+ 21.306758 2 7 poisson 500 ------- 0 2.0 7.0 159 1013
- 21.306758 2 7 poisson 500 ------- 0 2.0 7.0 159 1013
+ 21.308226 2 7 poisson 500 ------- 0 2.0 7.0 160 1014
+ 21.309467 2 7 poisson 500 ------- 0 2.0 7.0 161 1015
- 21.310758 2 7 poisson 500 ------- 0 2.0 7.0 160 1014
+ 21.314072 2 7 poisson 500 ------- 0 2.0 7.0 162 1016
+ 21.31414 2 7 poisson 500 ------- 0 2.0 7.0 163 1017
- 21.314758 2 7 poisson 500 ------- 0 2.0 7.0 161 1015
r 21.314926 2 7 poisson 500 ------- 0 2.0 7.0 158 1012
- 21.318758 2 7 poisson 500 ------- 0 2.0 7.0 162 1016
+ 21.319365 2 7 poisson 500 ------- 0 2.0 7.0 164 1018
r 21.320758 2 7 poisson 500 ------- 0 2.0 7.0 159 1013
- 21.322758 2 7 poisson 500 ------- 0 2.0 7.0 163 1017
+ 21.322936 2 7 poisson 500 ------- 0 2.0 7.0 165 1019
r 21.324758 2 7 poisson 500 ------- 0 2.0 7.0 160 1014
- 21.326758 2 7 poisson 500 ------- 0 2.0 7.0 164 1018
r 21.328758 2 7 poisson 500 ------- 0 2.0 7.0 161 1015
- 21.330758 2 7 poisson 500 ------- 0 2.0 7.0 165 1019
r 21.332758 2 7 poisson 500 ------- 0 2.0 7.0 162 1016
+ 21.334778 2 7 poisson 500 ------- 0 2.0 7.0 166 1020
- 21.334778 2 7 poisson 500 ------- 0 2.0 7.0 166 1020
+ 21.335132 2 7 poisson 500 ------- 0 2.0 7.0 167 1021
r 21.336758 2 7 poisson 500 ------- 0 2.0 7.0 163 1017
- 21.338778 2 7 poisson 500 ------- 0 2.0 7.0 167 1021
+ 21.339951 2 7 poisson 500 ------- 0 2.0 7.0 168 1022
r 21.340758 2 7 poisson 500 ------- 0 2.0 7.0 164 1018
- 21.342778 2 7 poisson 500 ------- 0 2.0 7.0 168 1022
r 21.344758 2 7 poisson 500 ------- 0 2.0 7.0 165 1019
r 21.348778 2 7 poisson 500 ------- 0 2.0 7.0 166 1020
r 21.352778 2 7 poisson 500 ------- 0 2.0 7.0 167 1021
r 21.356778 2 7 poisson 500 ------- 0 2.0 7.0 168 1022
+ 21.359208 2 7 poisson 500 ------- 0 2.0 7.0 169 1023
- 21.359208 2 7 poisson 500 ------- 0 2.0 7.0 169 1023
+ 21.360034 2 7 poisson 500 ------- 0 2.0 7.0 170 1024
- 21.363208 2 7 poisson 500 ------- 0 2.0 7.0 170 1024
+ 21.370474 2 7 poisson 500 ------- 0 2.0 7.0 171 1025
- 21.370474 2 7 poisson 500 ------- 0 2.0 7.0 171 1025
r 21.373208 2 7 poisson 500 ------- 0 2.0 7.0 169 1023
+ 21.376504 2 7 poisson 500 ------- 0 2.0 7.0 172 1026
- 21.376504 2 7 poisson 500 ------- 0 2.0 7.0 172 1026
r 21.377208 2 7 poisson 500 ------- 0 2.0 7.0 170 1024
+ 21.379077 2 7 poisson 500 ------- 0 2.0 7.0 173 1027
- 21.380504 2 7 poisson 500 ------- 0 2.0 7.0 173 1027
+ 21.380712 2 7 poisson 500 ------- 0 2.0 7.0 174 1028
r 21.384474 2 7 poisson 500 ------- 0 2.0 7.0 171 1025
- 21.384504 2 7 poisson 500 ------- 0 2.0 7.0 174 1028
r 21.390504 2 7 poisson 500 ------- 0 2.0 7.0 172 1026
r 21.394504 2 7 poisson 500 ------- 0 2.0 7.0 173 1027
r 21.398504 2 7 poisson 500 ------- 0 2.0 7.0 174 1028
+ 21.404675 2 7 poisson 500 ------- 0 2.0 7.0 175 1029
- 21.404675 2 7 poisson 500 ------- 0 2.0 7.0 175 1029
+ 21.417149 2 7 poisson 500 ------- 0 2.0 7.0 176 1030
- 21.417149 2 7 poisson 500 ------- 0 2.0 7.0 176 1030
r 21.418675 2 7 poisson 500 ------- 0 2.0 7.0 175 1029
+ 21.419472 2 7 poisson 500 ------- 0 2.0 7.0 177 1031
- 21.421149 2 7 poisson 500 ------- 0 2.0 7.0 177 1031
+ 21.422279 2 7 poisson 500 ------- 0 2.0 7.0 178 1032
- 21.425149 2 7 poisson 500 ------- 0 2.0 7.0 178 1032
r 21.431149 2 7 poisson 500 ------- 0 2.0 7.0 176 1030
+ 21.434532 2 7 poisson 500 ------- 0 2.0 7.0 179 1033
- 21.434532 2 7 poisson 500 ------- 0 2.0 7.0 179 1033
r 21.435149 2 7 poisson 500 ------- 0 2.0 7.0 177 1031
+ 21.435275 2 7 poisson 500 ------- 0 2.0 7.0 180 1034
+ 21.43561 2 7 poisson 500 ------- 0 2.0 7.0 181 1035
- 21.438532 2 7 poisson 500 ------- 0 2.0 7.0 180 1034
r 21.439149 2 7 poisson 500 ------- 0 2.0 7.0 178 1032
- 21.442532 2 7 poisson 500 ------- 0 2.0 7.0 181 1035
+ 21.445558 2 7 poisson 500 ------- 0 2.0 7.0 182 1036
- 21.446532 2 7 poisson 500 ------- 0 2.0 7.0 182 1036
r 21.448532 2 7 poisson 500 ------- 0 2.0 7.0 179 1033
+ 21.450066 2 7 poisson 500 ------- 0 2.0 7.0 183 1037
- 21.450532 2 7 poisson 500 ------- 0 2.0 7.0 183 1037
r 21.452532 2 7 poisson 500 ------- 0 2.0 7.0 180 1034
+ 21.456452 2 7 poisson 500 ------- 0 2.0 7.0 184 1038
- 21.456452 2 7 poisson 500 ------- 0 2.0 7.0 184 1038
r 21.456532 2 7 poisson 500 ------- 0 2.0 7.0 181 1035
+ 21.457379 2 7 poisson 500 ------- 0 2.0 7.0 185 1039
- 21.460452 2 7 poisson 500 ------- 0 2.0 7.0 185 1039
r 21.460532 2 7 poisson 500 ------- 0 2.0 7.0 182 1036
+ 21.463963 2 7 poisson 500 ------- 0 2.0 7.0 186 1040
- 21.464452 2 7 poisson 500 ------- 0 2.0 7.0 186 1040
r 21.464532 2 7 poisson 500 ------- 0 2.0 7.0 183 1037
+ 21.466323 2 7 poisson 500 ------- 0 2.0 7.0 187 1041
- 21.468452 2 7 poisson 500 ------- 0 2.0 7.0 187 1041